<VTKFile type="UnstructuredGrid" version="0.1" byte_order="LittleEndian">
<UnstructuredGrid>
<Piece NumberOfPoints="450" NumberOfCells="0">
<Points>
<DataArray name="Position" type="Float32" NumberOfComponents="3"  format="ascii">
-21.584222 -4.946004 0.000000
-20.601864 -4.345308 0.000000
-19.668814 -4.236515 0.000000
-18.644138 -4.175411 0.000000
-17.588947 -4.134956 0.000000
-16.516731 -4.105725 0.000000
-15.433549 -4.083246 0.000000
-14.342765 -4.064997 0.000000
-13.246489 -4.049402 0.000000
-12.146195 -4.035411 0.000000
-11.043011 -4.022314 0.000000
-9.937862 -4.009679 0.000000
-8.831514 -3.997326 0.000000
-7.724517 -3.985326 0.000000
-6.617033 -3.974009 0.000000
-5.508097 -3.964131 0.000000
-4.386645 -3.958253 0.000000
-3.358506 -3.894726 0.000000
-2.233629 -3.927915 0.000000
-1.116325 -3.932998 0.000000
-0.005014 -3.932725 0.000000
1.109954 -3.927295 0.000000
2.239231 -3.891832 0.000000
3.265446 -3.956574 0.000000
4.386413 -3.962942 0.000000
5.495420 -3.972801 0.000000
6.603149 -3.983897 0.000000
7.710652 -3.995356 0.000000
8.818379 -4.006488 0.000000
9.923106 -4.010348 0.000000
11.003069 -4.059081 0.000000
12.120668 -4.053480 0.000000
13.218357 -4.067071 0.000000
14.309758 -4.084595 0.000000
15.393333 -4.106680 0.000000
16.465941 -4.135614 0.000000
17.521849 -4.175689 0.000000
18.549197 -4.235674 0.000000
19.516810 -4.338048 0.000000
20.145559 -4.572204 0.000000
-21.043991 -3.933407 0.000000
-20.520691 -3.857188 0.000000
-19.604964 -3.790426 0.000000
-18.601922 -3.741150 0.000000
-17.559007 -3.706195 0.000000
-16.494153 -3.680296 0.000000
-15.415539 -3.660020 0.000000
-14.327589 -3.643193 0.000000
-13.232998 -3.628362 0.000000
-12.133593 -3.614487 0.000000
-11.030767 -3.600812 0.000000
-9.925694 -3.586856 0.000000
-8.819384 -3.572437 0.000000
-7.712630 -3.557675 0.000000
-6.605807 -3.542928 0.000000
-5.498142 -3.528497 0.000000
-4.380804 -3.513630 0.000000
-3.287771 -3.533081 0.000000
-2.263993 -3.458585 0.000000
-1.121722 -3.492780 0.000000
0.000688 -3.492713 0.000000
1.129591 -3.464126 0.000000
2.168034 -3.530820 0.000000
3.259204 -3.512141 0.000000
4.376485 -3.527043 0.000000
5.484369 -3.541353 0.000000
6.591661 -3.555648 0.000000
7.699605 -3.569179 0.000000
8.808017 -3.579486 0.000000
9.864132 -3.657523 0.000000
11.006714 -3.617873 0.000000
12.108618 -3.630475 0.000000
13.203726 -3.644679 0.000000
14.292032 -3.661132 0.000000
15.370938 -3.681177 0.000000
16.436139 -3.706935 0.000000
17.479734 -3.741900 0.000000
18.484929 -3.792098 0.000000
19.410087 -3.869756 0.000000
19.915019 -3.975364 0.000000
-20.942062 -3.039219 0.000000
-20.455185 -2.980375 0.000000
-19.552759 -2.931184 0.000000
-18.564206 -2.895024 0.000000
-17.531130 -2.867860 0.000000
-16.472548 -2.846869 0.000000
-15.397838 -2.829831 0.000000
-14.312193 -2.815144 0.000000
-13.218743 -2.801612 0.000000
-12.119573 -2.788233 0.000000
-11.016320 -2.774156 0.000000
-9.910450 -2.758783 0.000000
-8.803327 -2.741887 0.000000
-7.696087 -2.723664 0.000000
-6.589351 -2.704687 0.000000
-5.481835 -2.685588 0.000000
-4.358460 -2.662928 0.000000
-3.313423 -2.659583 0.000000
-2.124344 -2.722591 0.000000
-1.150697 -2.672667 0.000000
0.029298 -2.673558 0.000000
0.999241 -2.721315 0.000000
2.192540 -2.657061 0.000000
3.236703 -2.660580 0.000000
4.360177 -2.683623 0.000000
5.468278 -2.702523 0.000000
6.576271 -2.720379 0.000000
7.686332 -2.734750 0.000000
8.750857 -2.801921 0.000000
9.889294 -2.777756 0.000000
10.995232 -2.790240 0.000000
12.094917 -2.803111 0.000000
13.188672 -2.816329 0.000000
14.274542 -2.830801 0.000000
15.349458 -2.847706 0.000000
16.408284 -2.868658 0.000000
17.441740 -2.895988 0.000000
18.430891 -2.932922 0.000000
19.333426 -2.984143 0.000000
19.817726 -3.043717 0.000000
-20.891828 -2.057474 0.000000
-20.413114 -2.026238 0.000000
-19.519492 -1.997579 0.000000
-18.538681 -1.975183 0.000000
-17.511254 -1.957312 0.000000
-16.456389 -1.942600 0.000000
-15.383917 -1.929822 0.000000
-14.299414 -1.918036 0.000000
-13.206137 -1.906415 0.000000
-12.106152 -1.893935 0.000000
-11.001225 -1.879446 0.000000
-9.893143 -1.862016 0.000000
-8.783781 -1.841226 0.000000
-7.674765 -1.817367 0.000000
-6.567348 -1.790935 0.000000
-5.460054 -1.765481 0.000000
-4.320160 -1.734133 0.000000
-3.311710 -1.723693 0.000000
-2.149897 -1.661228 0.000000
-2.063501 -0.706946 0.000000
0.948762 -0.660095 0.000000
1.031678 -1.656152 0.000000
2.191260 -1.717898 0.000000
3.196882 -1.729205 0.000000
4.338214 -1.762814 0.000000
5.447432 -1.787467 0.000000
6.558376 -1.809439 0.000000
7.635710 -1.870447 0.000000
8.766067 -1.865928 0.000000
9.876688 -1.881526 0.000000
10.982265 -1.895444 0.000000
12.082596 -1.907633 0.000000
13.176088 -1.919058 0.000000
14.260752 -1.930706 0.000000
15.333362 -1.943401 0.000000
16.388366 -1.958109 0.000000
17.415934 -1.976105 0.000000
18.396813 -1.998826 0.000000
19.290203 -2.027896 0.000000
19.768366 -2.059181 0.000000
-20.869253 -1.053547 0.000000
-20.392527 -1.042636 0.000000
-19.502155 -1.031948 0.000000
-18.524450 -1.022790 0.000000
-17.499247 -1.014541 0.000000
-16.445646 -1.006612 0.000000
-15.373688 -0.998456 0.000000
-14.289247 -0.989879 0.000000
-13.195326 -0.980796 0.000000
-12.093241 -0.969883 0.000000
-10.984825 -0.955085 0.000000
-9.872196 -0.934655 0.000000
-8.758042 -0.907370 0.000000
-7.645048 -0.874022 0.000000
-6.515073 -0.828449 0.000000
-5.434118 -0.796991 0.000000
-4.257578 -0.752304 0.000000
-3.314207 -0.747912 0.000000
-2.385269 -0.815542 0.000000
-1.017599 -0.721333 0.000000
-0.117023 -0.728808 0.000000
1.327487 -0.811993 0.000000
2.206197 -0.727806 0.000000
3.128825 -0.748936 0.000000
4.312122 -0.793404 0.000000
5.386352 -0.820222 0.000000
6.503703 -0.895082 0.000000
7.631018 -0.911592 0.000000
8.747492 -0.936945 0.000000
9.860847 -0.956706 0.000000
10.969652 -0.971164 0.000000
12.071971 -0.981875 0.000000
13.166055 -0.990820 0.000000
14.250617 -0.999289 0.000000
15.322661 -1.007376 0.000000
16.376324 -1.015292 0.000000
17.401557 -1.023598 0.000000
18.379217 -1.032875 0.000000
19.269437 -1.043680 0.000000
19.745946 -1.054631 0.000000
-20.867681 -0.043793 0.000000
-20.390583 -0.051216 0.000000
-19.499819 -0.057532 0.000000
-18.521508 -0.061445 0.000000
-17.495409 -0.062972 0.000000
-16.440519 -0.061978 0.000000
-15.366974 -0.058105 0.000000
-14.281782 -0.051921 0.000000
-13.187678 -0.046613 0.000000
-12.081531 -0.039165 0.000000
-10.966889 -0.024516 0.000000
-9.845468 0.000151 0.000000
-8.720587 0.040215 0.000000
-7.601441 0.097760 0.000000
-6.471628 0.135088 0.000000
-5.417039 0.225079 0.000000
-4.134578 0.272987 0.000000
-3.346550 0.292810 0.000000
-2.140721 0.226723 0.000000
-0.775453 0.295854 0.000000
-0.414443 0.268232 0.000000
1.065468 0.251251 0.000000
2.184617 0.273805 0.000000
3.000182 0.277312 0.000000
4.297388 0.233082 0.000000
5.330153 0.117123 0.000000
6.474230 0.093318 0.000000
7.595745 0.037670 0.000000
8.721418 -0.001659 0.000000
9.843270 -0.025922 0.000000
10.958153 -0.040319 0.000000
12.064445 -0.047632 0.000000
13.158699 -0.052852 0.000000
14.243996 -0.058917 0.000000
15.317582 -0.062704 0.000000
16.372482 -0.063665 0.000000
17.398558 -0.062147 0.000000
18.376795 -0.058276 0.000000
19.267430 -0.052022 0.000000
19.744322 -0.044699 0.000000
-20.887230 0.960158 0.000000
-20.407298 0.932498 0.000000
-19.512673 0.908017 0.000000
-18.530049 0.890487 0.000000
-17.499941 0.878949 0.000000
-16.440996 0.872855 0.000000
-15.362019 0.873515 0.000000
-14.273180 0.886110 0.000000
-13.190637 0.881499 0.000000
-12.071878 0.878137 0.000000
-10.947648 0.892702 0.000000
-9.809405 0.920411 0.000000
-8.661853 1.006103 0.000000
-7.366212 0.436676 0.000000
-6.444611 1.163473 0.000000
-4.152020 0.012629 0.000000
-3.816732 1.270016 0.000000
-3.505495 0.292917 0.000000
-2.147593 1.266722 0.000000
-0.216871 1.028365 0.000000
-0.618303 1.318276 0.000000
0.998608 1.265854 0.000000
2.541966 0.450102 0.000000
2.718963 1.278005 0.000000
3.843637 0.773838 0.000000
5.317113 1.157790 0.000000
6.246965 0.426118 0.000000
7.537846 1.004266 0.000000
8.685767 0.918778 0.000000
9.824311 0.891409 0.000000
10.948681 0.877093 0.000000
12.067362 0.880480 0.000000
13.150260 0.884928 0.000000
14.239190 0.872696 0.000000
15.318124 0.872171 0.000000
16.377034 0.878317 0.000000
17.407088 0.889873 0.000000
18.389617 0.907397 0.000000
19.284095 0.931833 0.000000
19.763653 0.959329 0.000000
-20.934438 1.960283 0.000000
-20.447660 1.898443 0.000000
-19.542922 1.847775 0.000000
-18.550800 1.813816 0.000000
-17.513230 1.791247 0.000000
-16.447835 1.777041 0.000000
-15.357442 1.771641 0.000000
-14.116980 1.761621 0.000000
-13.289724 1.801301 0.000000
-12.056324 1.747911 0.000000
-10.927890 1.773992 0.000000
-9.778945 1.794552 0.000000
-8.574408 1.812093 0.000000
-7.105252 1.472438 0.000000
-6.522177 1.658119 0.000000
-4.297797 0.943812 0.000000
-9.415442 2.296202 0.000000
-3.533193 2.311485 0.000000
-2.362739 2.233111 0.000000
-1.483475 2.026012 0.000000
0.355752 1.959317 0.000000
1.085110 2.310663 0.000000
2.445539 2.297044 0.000000
8.292020 2.284772 0.000000
2.611761 0.438826 0.000000
5.395533 1.657669 0.000000
5.981306 1.472518 0.000000
7.450764 1.810834 0.000000
8.655668 1.792994 0.000000
9.804829 1.772750 0.000000
10.933446 1.747048 0.000000
12.165722 1.801152 0.000000
12.990854 1.781357 0.000000
14.234849 1.770914 0.000000
15.325032 1.776418 0.000000
16.390359 1.790676 0.000000
17.427855 1.813280 0.000000
18.419867 1.847263 0.000000
19.324449 1.897954 0.000000
19.810640 1.959794 0.000000
-21.026913 2.868660 0.000000
-20.520310 2.765665 0.000000
-19.592141 2.691412 0.000000
-18.583104 2.644540 0.000000
-17.534396 2.612989 0.000000
-16.461680 2.589938 0.000000
-15.368513 2.566389 0.000000
-14.210190 2.450063 0.000000
-14.193614 1.851560 0.000000
-12.003369 2.599047 0.000000
-10.912646 2.604750 0.000000
-9.761907 2.610391 0.000000
-8.582313 2.595167 0.000000
-7.352704 2.578922 0.000000
-5.503616 2.145724 0.000000
-3.837214 2.664161 0.000000
-2.721962 1.231716 0.000000
-3.339719 1.557267 0.000000
-0.414938 2.971069 0.000000
2.394199 1.523289 0.000000
1.969084 2.967339 0.000000
1.476919 1.089138 0.000000
2.671636 2.591835 0.000000
4.369931 2.124120 0.000000
6.229225 2.576652 0.000000
7.459205 2.593689 0.000000
8.639008 2.608850 0.000000
9.789840 2.603488 0.000000
10.880993 2.598026 0.000000
13.063132 1.837970 0.000000
13.087340 2.451266 0.000000
14.245865 2.565883 0.000000
15.338919 2.589376 0.000000
16.411566 2.612469 0.000000
17.460191 2.644065 0.000000
18.469113 2.690979 0.000000
19.397112 2.765294 0.000000
19.903341 2.868436 0.000000
-21.255389 3.468183 0.000000
-20.623833 3.236576 0.000000
-19.652989 3.137332 0.000000
-18.621377 3.081024 0.000000
-17.559926 3.045141 0.000000
-16.480050 3.020691 0.000000
-15.387704 3.002102 0.000000
-14.299207 2.991565 0.000000
-13.195144 3.086624 0.000000
-12.020933 3.002972 0.000000
-10.903444 2.989575 0.000000
-9.749218 2.994478 0.000000
-8.567187 3.002139 0.000000
-7.337398 3.028618 0.000000
-5.921005 3.073597 0.000000
-2.143404 0.684179 0.000000
1.232287 1.465753 0.000000
-3.803948 7.362018 0.000000
14.032026 -18.732246 0.000000
-15.263838 -18.614875 0.000000
2.882935 7.325730 0.000000
-2.465981 -0.344696 0.000000
0.833405 2.267891 0.000000
4.797946 3.070331 0.000000
6.214442 3.026187 0.000000
7.444380 3.000282 0.000000
8.626523 2.992917 0.000000
9.780808 2.988246 0.000000
10.898467 3.001697 0.000000
12.072465 3.085042 0.000000
13.176228 2.990673 0.000000
14.264992 3.001515 0.000000
15.357325 3.020152 0.000000
16.437139 3.044662 0.000000
17.498505 3.080603 0.000000
18.530000 3.136963 0.000000
19.500683 3.236245 0.000000
20.131991 3.467892 0.000000
-8.111959 1.007892 0.000000
-9.378709 1.063710 0.000000
-3.705168 -4.672840 0.000000
-299.043772 -26.152832 0.000000
2.586428 -4.667179 0.000000
8.254338 1.058575 0.000000
6.982074 1.012345 0.000000
-6.475862 -0.972872 0.000000
-5.515204 2.034676 0.000000
-3.718160 -0.825788 0.000000
-0.965691 -0.641039 0.000000
-0.043803 -0.631897 0.000000
-28.378706 -60.069796 0.000000
2.530142 -0.868420 0.000000
4.378757 2.034457 0.000000
5.426700 -0.907481 0.000000
-5.216111 0.647914 0.000000
-4.005595 -0.373068 0.000000
-3.264090 -0.171132 0.000000
3.062213 -1.477993 0.000000
-0.595261 1.104355 0.000000
2.124413 -0.193061 0.000000
2.868338 -0.387975 0.000000
3.222498 -0.198798 0.000000
-5.159983 1.327526 0.000000
-3.884032 0.758711 0.000000
-2.951607 3.006102 0.000000
-1.972805 0.882686 0.000000
-1.849983 1.333663 0.000000
-0.321581 0.832749 0.000000
1.030520 0.858467 0.000000
1.590768 1.014188 0.000000
2.769140 0.744557 0.000000
4.588900 1.842431 0.000000
-5.047538 2.140924 0.000000
-3.973378 1.789289 0.000000
-2.313449 2.786845 0.000000
-2.199572 1.683877 0.000000
-1.140886 1.663095 0.000000
-2.328555 2.825646 0.000000
1.141406 1.629841 0.000000
1.735629 1.686371 0.000000
2.849828 1.773899 0.000000
3.946012 2.177690 0.000000
-4.663473 2.527146 0.000000
-4.036380 2.351234 0.000000
-2.944847 2.524403 0.000000
-2.147932 2.196128 0.000000
-1.074133 2.304408 0.000000
0.008861 2.199999 0.000000
0.996880 2.163143 0.000000
1.777827 2.256091 0.000000
2.956199 2.379648 0.000000
3.554657 2.502901 0.000000
</DataArray>
</Points>
<PointData Vectors="vector">
<DataArray type="Float32" Name="Velocity" NumberOfComponents="3" format="ascii">
2.571877 2.023756 0.000000
1.936691 3.719204 0.000000
1.354893 3.988568 0.000000
1.108239 4.146435 0.000000
0.938880 4.248104 0.000000
0.813189 4.320685 0.000000
0.716050 4.376217 0.000000
0.639058 4.421310 0.000000
0.576965 4.460145 0.000000
0.526088 4.495669 0.000000
0.483449 4.530027 0.000000
0.446420 4.564672 0.000000
0.412739 4.600420 0.000000
0.380765 4.637447 0.000000
0.350829 4.674874 0.000000
0.332458 4.710916 0.000000
0.440165 4.748607 0.000000
-0.148918 5.011687 0.000000
-0.034393 4.796363 0.000000
0.004373 4.790363 0.000000
0.006605 4.793246 0.000000
0.028868 4.809171 0.000000
0.163453 5.026595 0.000000
-0.436033 4.761827 0.000000
-0.331069 4.719991 0.000000
-0.349012 4.681825 0.000000
-0.377098 4.643941 0.000000
-0.405243 4.608722 0.000000
-0.428147 4.577209 0.000000
-0.514035 4.656368 0.000000
-0.602053 4.383621 0.000000
-0.586389 4.440133 0.000000
-0.645295 4.411744 0.000000
-0.720343 4.370166 0.000000
-0.816001 4.316529 0.000000
-0.939906 4.245452 0.000000
-1.105425 4.145881 0.000000
-1.336669 3.994607 0.000000
-1.669432 3.753009 0.000000
-3.353614 2.995231 0.000000
4.056755 1.517360 0.000000
1.956727 1.508319 0.000000
1.468696 1.623024 0.000000
1.178452 1.731333 0.000000
0.986608 1.811416 0.000000
0.848313 1.871283 0.000000
0.743810 1.918553 0.000000
0.662615 1.958472 0.000000
0.598508 1.994864 0.000000
0.547290 2.030868 0.000000
0.505556 2.069092 0.000000
0.470207 2.111382 0.000000
0.438503 2.158706 0.000000
0.408278 2.211203 0.000000
0.379246 2.267658 0.000000
0.362465 2.326831 0.000000
0.474138 2.389166 0.000000
-0.001199 2.219196 0.000000
-0.101835 2.593434 0.000000
-0.026351 2.421799 0.000000
0.040163 2.422946 0.000000
0.073380 2.574815 0.000000
0.019051 2.233780 0.000000
-0.471816 2.404209 0.000000
-0.362493 2.338569 0.000000
-0.377807 2.276816 0.000000
-0.403620 2.221017 0.000000
-0.425723 2.174596 0.000000
-0.453229 2.152232 0.000000
-0.640828 1.772470 0.000000
-0.569473 2.035738 0.000000
-0.603030 1.988538 0.000000
-0.666909 1.952896 0.000000
-0.747062 1.914157 0.000000
-0.850422 1.867715 0.000000
-0.987060 1.808332 0.000000
-1.175214 1.727819 0.000000
-1.452520 1.612641 0.000000
-1.860985 1.411519 0.000000
-4.078447 1.222350 0.000000
4.294436 0.822073 0.000000
2.085018 0.940780 0.000000
1.621720 1.077679 0.000000
1.290860 1.167082 0.000000
1.069566 1.234431 0.000000
0.912479 1.286358 0.000000
0.796364 1.328467 0.000000
0.708480 1.364884 0.000000
0.641560 1.399001 0.000000
0.590919 1.434310 0.000000
0.552449 1.474244 0.000000
0.521989 1.521361 0.000000
0.495803 1.577034 0.000000
0.470847 1.642364 0.000000
0.443231 1.715835 0.000000
0.425256 1.786620 0.000000
0.546502 1.865156 0.000000
-0.002430 1.870349 0.000000
0.245851 1.651808 0.000000
-0.179047 1.667020 0.000000
0.191762 1.662872 0.000000
-0.244557 1.660579 0.000000
0.021217 1.900673 0.000000
-0.548740 1.897222 0.000000
-0.430563 1.802899 0.000000
-0.442268 1.726719 0.000000
-0.460869 1.656836 0.000000
-0.475128 1.608214 0.000000
-0.658679 1.347444 0.000000
-0.571500 1.469767 0.000000
-0.594703 1.429966 0.000000
-0.644878 1.394313 0.000000
-0.711397 1.360533 0.000000
-0.798689 1.324709 0.000000
-0.914014 1.283026 0.000000
-1.069925 1.231133 0.000000
-1.289133 1.162731 0.000000
-1.616366 1.068725 0.000000
-2.077349 0.919661 0.000000
-4.303199 0.796942 0.000000
4.421124 0.467489 0.000000
2.181256 0.528627 0.000000
1.704497 0.610104 0.000000
1.354793 0.665951 0.000000
1.119296 0.710357 0.000000
0.952910 0.746976 0.000000
0.831217 0.778871 0.000000
0.740466 0.808085 0.000000
0.673769 0.836767 0.000000
0.627514 0.869331 0.000000
0.597204 0.911411 0.000000
0.577185 0.967243 0.000000
0.562443 1.038464 0.000000
0.552588 1.128716 0.000000
0.531631 1.258752 0.000000
0.496728 1.339181 0.000000
0.688004 1.469381 0.000000
0.062527 1.557316 0.000000
0.191060 1.985944 0.000000
0.944323 2.885499 0.000000
-0.770368 3.023779 0.000000
-0.134780 1.994362 0.000000
-0.005277 1.639115 0.000000
-0.765711 1.616905 0.000000
-0.517375 1.357089 0.000000
-0.525696 1.270522 0.000000
-0.532724 1.161163 0.000000
-0.655787 0.927116 0.000000
-0.596837 0.959143 0.000000
-0.603158 0.907069 0.000000
-0.631610 0.865414 0.000000
-0.676847 0.832911 0.000000
-0.742929 0.804449 0.000000
-0.833146 0.775528 0.000000
-0.954270 0.743822 0.000000
-1.119975 0.707077 0.000000
-1.354676 0.661883 0.000000
-1.703925 0.604165 0.000000
-2.181693 0.520430 0.000000
-4.424937 0.459058 0.000000
4.476548 0.168050 0.000000
2.230217 0.188914 0.000000
1.747480 0.218758 0.000000
1.389991 0.241167 0.000000
1.149102 0.261400 0.000000
0.979968 0.281420 0.000000
0.857171 0.302789 0.000000
0.765169 0.324417 0.000000
0.699426 0.344384 0.000000
0.662272 0.370474 0.000000
0.647939 0.414711 0.000000
0.648200 0.485972 0.000000
0.653648 0.585934 0.000000
0.672965 0.709559 0.000000
1.888803 0.630917 0.000000
0.552400 1.035046 0.000000
1.083302 1.364724 0.000000
-0.112817 1.449288 0.000000
-3.635530 2.190956 0.000000
0.499909 2.266046 0.000000
-0.056945 2.132217 0.000000
3.717137 2.007183 0.000000
0.493199 1.660256 0.000000
-1.226327 1.328944 0.000000
-0.595083 1.044717 0.000000
-3.351415 -0.586716 0.000000
-0.745099 0.634430 0.000000
-0.673766 0.574631 0.000000
-0.656371 0.480351 0.000000
-0.653299 0.410477 0.000000
-0.666046 0.366728 0.000000
-0.702290 0.340853 0.000000
-0.767376 0.321047 0.000000
-0.858856 0.299641 0.000000
-0.981252 0.278434 0.000000
-1.150052 0.258356 0.000000
-1.390731 0.237750 0.000000
-1.748369 0.214698 0.000000
-2.231737 0.184337 0.000000
-4.479299 0.163507 0.000000
4.479447 -0.116909 0.000000
2.234438 -0.131841 0.000000
1.752390 -0.151135 0.000000
1.396506 -0.162149 0.000000
1.158440 -0.166730 0.000000
0.994017 -0.163445 0.000000
0.877296 -0.149068 0.000000
0.783347 -0.127881 0.000000
0.709269 -0.126084 0.000000
0.692095 -0.117841 0.000000
0.707529 -0.072647 0.000000
0.753814 0.032445 0.000000
0.796493 0.207763 0.000000
0.856364 0.534060 0.000000
0.985329 0.338784 0.000000
0.667563 0.932374 0.000000
1.387006 0.654104 0.000000
-0.313014 1.487157 0.000000
0.590236 0.499909 0.000000
2.502793 0.873965 0.000000
-3.189847 0.569358 0.000000
0.079646 0.982919 0.000000
-0.486820 0.965221 0.000000
-2.016540 1.016161 0.000000
-0.694180 0.859263 0.000000
-1.084023 0.240253 0.000000
-0.881892 0.523822 0.000000
-0.806836 0.200376 0.000000
-0.760554 0.027343 0.000000
-0.712103 -0.076841 0.000000
-0.695477 -0.121450 0.000000
-0.712066 -0.129560 0.000000
-0.785350 -0.131434 0.000000
-0.878672 -0.152234 0.000000
-0.995171 -0.166281 0.000000
-1.159492 -0.169488 0.000000
-1.397575 -0.165009 0.000000
-1.753682 -0.154180 0.000000
-2.236071 -0.135048 0.000000
-4.482060 -0.120181 0.000000
4.428991 -0.418335 0.000000
2.194455 -0.472645 0.000000
1.718584 -0.543240 0.000000
1.373603 -0.588994 0.000000
1.146481 -0.619201 0.000000
0.995365 -0.633643 0.000000
0.904972 -0.619041 0.000000
0.826487 -0.521046 0.000000
0.646780 -0.607755 0.000000
0.717510 -0.652131 0.000000
0.773746 -0.606195 0.000000
0.998606 -0.464249 0.000000
0.916666 0.117362 0.000000
1.982193 -6.177185 0.000000
0.764623 0.311292 0.000000
8.546631 -8.928845 0.000000
1.700774 0.065909 0.000000
-0.076438 -7.777392 0.000000
0.754075 0.595517 0.000000
6.126437 -1.741265 0.000000
-3.591361 -0.608093 0.000000
-19.713157 -20.872199 0.000000
2.514938 -6.119007 0.000000
-1.592645 -0.023691 0.000000
-0.335893 -2.309900 0.000000
-0.789406 0.298835 0.000000
-1.940888 -6.255130 0.000000
-0.920945 0.114143 0.000000
-1.004577 -0.469952 0.000000
-0.777481 -0.610438 0.000000
-0.720304 -0.655473 0.000000
-0.650415 -0.611133 0.000000
-0.827988 -0.527347 0.000000
-0.905507 -0.622444 0.000000
-0.996271 -0.636302 0.000000
-1.147497 -0.621686 0.000000
-1.374739 -0.591440 0.000000
-1.719950 -0.545691 0.000000
-2.195930 -0.475184 0.000000
-4.432039 -0.421128 0.000000
4.313043 -0.707319 0.000000
2.095908 -0.832670 0.000000
1.638246 -0.985608 0.000000
1.318461 -1.075221 0.000000
1.111036 -1.134362 0.000000
0.978315 -1.171741 0.000000
0.942356 -1.180024 0.000000
0.549549 -5.049273 0.000000
0.062507 -1.222799 0.000000
0.792535 -1.336709 0.000000
0.828096 -1.236663 0.000000
1.053797 -1.207570 0.000000
1.246896 -1.253852 0.000000
2.568449 -3.061364 0.000000
0.253351 -2.497229 0.000000
7.437550 -9.878841 0.000000
-10.368863 -0.021059 0.000000
-0.227283 -0.073165 0.000000
-0.800461 -0.542862 0.000000
-1.709551 -1.041167 0.000000
1.511779 -1.620099 0.000000
-1.745570 0.761061 0.000000
0.472363 -0.427978 0.000000
10.365748 -0.075290 0.000000
-14.924889 -15.639330 0.000000
-0.293931 -2.486171 0.000000
-2.577873 -3.054259 0.000000
-1.253152 -1.251128 0.000000
-1.058899 -1.212600 0.000000
-0.830814 -1.241072 0.000000
-0.793805 -1.339523 0.000000
-0.065203 -1.219004 0.000000
-0.953089 -5.345299 0.000000
-0.941528 -1.182648 0.000000
-0.978995 -1.174110 0.000000
-1.111952 -1.136602 0.000000
-1.319543 -1.077355 0.000000
-1.639556 -0.987634 0.000000
-2.097131 -0.834477 0.000000
-4.316532 -0.709225 0.000000
4.098586 -1.204696 0.000000
1.884264 -1.389471 0.000000
1.484115 -1.580288 0.000000
1.216854 -1.689735 0.000000
1.042222 -1.766485 0.000000
0.927587 -1.829116 0.000000
0.873552 -1.923482 0.000000
1.004455 -2.693494 0.000000
-0.507216 0.824885 0.000000
0.986516 -1.804008 0.000000
0.847154 -1.780948 0.000000
1.032283 -1.890749 0.000000
1.003319 -2.263247 0.000000
1.262765 -2.292577 0.000000
-0.053944 -0.282678 0.000000
9.547781 -6.626946 0.000000
5.254774 -0.267676 0.000000
-9.023830 -40.235887 0.000000
2.356890 -1.554968 0.000000
21.112370 -14.032566 0.000000
2.147943 -3.605397 0.000000
-5.004859 -0.390826 0.000000
-10.257452 -8.039748 0.000000
0.271108 -0.332370 0.000000
-1.272034 -2.302455 0.000000
-1.009879 -2.264805 0.000000
-1.032546 -1.896261 0.000000
-0.848800 -1.785576 0.000000
-0.986278 -1.807673 0.000000
0.889430 1.120861 0.000000
-1.011152 -2.685977 0.000000
-0.873808 -1.924813 0.000000
-0.928201 -1.831253 0.000000
-1.043003 -1.768578 0.000000
-1.217808 -1.691704 0.000000
-1.485302 -1.582109 0.000000
-1.885667 -1.390955 0.000000
-4.101399 -1.205788 0.000000
3.377605 -2.960259 0.000000
1.701420 -3.712060 0.000000
1.373794 -3.947752 0.000000
1.151810 -4.090948 0.000000
0.998969 -4.182060 0.000000
0.892519 -4.245847 0.000000
0.816341 -4.298864 0.000000
0.694410 -4.259921 0.000000
0.626883 -3.665209 0.000000
0.915153 -4.303499 0.000000
0.831091 -4.424341 0.000000
0.927921 -4.504166 0.000000
0.989365 -4.565754 0.000000
1.201268 -4.447231 0.000000
2.138112 -4.146571 0.000000
6.424236 -12.072505 0.000000
28.125961 20.327243 0.000000
-3.176140 3.424033 0.000000
32.244428 -37.874945 0.000000
-32.499919 -37.602079 0.000000
3.688861 3.212539 0.000000
-10.268522 -9.612796 0.000000
-5.414898 -5.521026 0.000000
-2.145370 -4.170379 0.000000
-1.207367 -4.458626 0.000000
-0.993231 -4.572608 0.000000
-0.929245 -4.509514 0.000000
-0.832281 -4.429419 0.000000
-0.915168 -4.308676 0.000000
-0.627262 -3.671580 0.000000
-0.697132 -4.265078 0.000000
-0.817076 -4.301034 0.000000
-0.893084 -4.247919 0.000000
-0.999628 -4.183968 0.000000
-1.152628 -4.092667 0.000000
-1.374824 -3.949306 0.000000
-1.702699 -3.713609 0.000000
-3.379761 -2.961628 0.000000
-4.516151 -0.873217 0.000000
-7.104720 -4.173322 0.000000
1.458379 -13.629605 0.000000
-483.018164 -49.834205 0.000000
-1.441901 -13.604638 0.000000
7.093879 -4.193279 0.000000
4.453062 -0.823350 0.000000
-5.453236 -9.052836 0.000000
1.938079 -7.252388 0.000000
-0.252462 -9.364076 0.000000
-1.121333 -9.360083 0.000000
1.424843 -9.083233 0.000000
-74.114079 -159.342802 0.000000
-0.227651 -9.851874 0.000000
-2.147020 -7.767998 0.000000
7.240716 -7.474582 0.000000
-1.503343 -3.593529 0.000000
0.119671 -11.835094 0.000000
-2.245315 -11.117435 0.000000
10.534508 -14.458969 0.000000
4.042230 -10.046085 0.000000
2.109508 -11.251879 0.000000
-0.236462 -12.000265 0.000000
-6.554944 -10.798620 0.000000
-2.624134 -5.234128 0.000000
2.711759 -12.744744 0.000000
7.444514 20.188167 0.000000
1.112879 -11.736275 0.000000
-3.622194 -9.238698 0.000000
-3.681116 -11.033460 0.000000
0.151303 -11.439606 0.000000
-3.224794 -11.947623 0.000000
-2.851321 -13.274681 0.000000
9.320754 1.436856 0.000000
-1.849782 -9.934339 0.000000
1.345830 -12.812903 0.000000
6.404235 -4.622014 0.000000
-0.869960 -13.320709 0.000000
-0.305620 -13.481171 0.000000
-22.309400 -5.998381 0.000000
2.400989 -14.091113 0.000000
-2.305431 -13.799235 0.000000
-1.401384 -12.915518 0.000000
2.039458 -9.615580 0.000000
2.599973 -14.662314 0.000000
0.262344 -14.109377 0.000000
0.797834 -8.712877 0.000000
-0.509858 -15.449990 0.000000
0.930506 -13.392858 0.000000
0.031106 -15.282380 0.000000
-0.094787 -16.719615 0.000000
-2.671812 -14.960364 0.000000
0.392164 -13.112447 0.000000
-2.523044 -14.759872 0.000000
</DataArray>
<DataArray type="Float32" Name="Masse" format="ascii">
1.000000
1.000000
1.000000
1.000000
1.000000
1.000000
1.000000
1.000000
1.000000
1.000000
1.000000
1.000000
1.000000
1.000000
1.000000
1.000000
1.000000
1.000000
1.000000
1.000000
1.000000
1.000000
1.000000
1.000000
1.000000
1.000000
1.000000
1.000000
1.000000
1.000000
1.000000
1.000000
1.000000
1.000000
1.000000
1.000000
1.000000
1.000000
1.000000
1.000000
1.000000
1.000000
1.000000
1.000000
1.000000
1.000000
1.000000
1.000000
1.000000
1.000000
1.000000
1.000000
1.000000
1.000000
1.000000
1.000000
1.000000
1.000000
1.000000
1.000000
1.000000
1.000000
1.000000
1.000000
1.000000
1.000000
1.000000
1.000000
1.000000
1.000000
1.000000
1.000000
1.000000
1.000000
1.000000
1.000000
1.000000
1.000000
1.000000
1.000000
1.000000
1.000000
1.000000
1.000000
1.000000
1.000000
1.000000
1.000000
1.000000
1.000000
1.000000
1.000000
1.000000
1.000000
1.000000
1.000000
1.000000
1.000000
1.000000
1.000000
1.000000
1.000000
1.000000
1.000000
1.000000
1.000000
1.000000
1.000000
1.000000
1.000000
1.000000
1.000000
1.000000
1.000000
1.000000
1.000000
1.000000
1.000000
1.000000
1.000000
1.000000
1.000000
1.000000
1.000000
1.000000
1.000000
1.000000
1.000000
1.000000
1.000000
1.000000
1.000000
1.000000
1.000000
1.000000
1.000000
1.000000
1.000000
1.000000
1.000000
1.000000
1.000000
1.000000
1.000000
1.000000
1.000000
1.000000
1.000000
1.000000
1.000000
1.000000
1.000000
1.000000
1.000000
1.000000
1.000000
1.000000
1.000000
1.000000
1.000000
1.000000
1.000000
1.000000
1.000000
1.000000
1.000000
1.000000
1.000000
1.000000
1.000000
1.000000
1.000000
1.000000
1.000000
1.000000
1.000000
1.000000
1.000000
1.000000
1.000000
1.000000
1.000000
1.000000
1.000000
1.000000
1.000000
1.000000
1.000000
1.000000
1.000000
1.000000
1.000000
1.000000
1.000000
1.000000
1.000000
1.000000
1.000000
1.000000
1.000000
1.000000
1.000000
1.000000
1.000000
1.000000
1.000000
1.000000
1.000000
1.000000
1.000000
1.000000
1.000000
1.000000
1.000000
1.000000
1.000000
1.000000
1.000000
1.000000
1.000000
1.000000
1.000000
1.000000
1.000000
1.000000
1.000000
1.000000
1.000000
1.000000
1.000000
1.000000
1.000000
1.000000
1.000000
1.000000
1.000000
1.000000
1.000000
1.000000
1.000000
1.000000
1.000000
1.000000
1.000000
1.000000
1.000000
1.000000
1.000000
1.000000
1.000000
1.000000
1.000000
1.000000
1.000000
1.000000
1.000000
1.000000
1.000000
1.000000
1.000000
1.000000
1.000000
1.000000
1.000000
1.000000
1.000000
1.000000
1.000000
1.000000
1.000000
1.000000
1.000000
1.000000
1.000000
1.000000
1.000000
1.000000
1.000000
1.000000
1.000000
1.000000
1.000000
1.000000
1.000000
1.000000
1.000000
1.000000
1.000000
1.000000
1.000000
1.000000
1.000000
1.000000
1.000000
1.000000
1.000000
1.000000
1.000000
1.000000
1.000000
1.000000
1.000000
1.000000
1.000000
1.000000
1.000000
1.000000
1.000000
1.000000
1.000000
1.000000
1.000000
1.000000
1.000000
1.000000
1.000000
1.000000
1.000000
1.000000
1.000000
1.000000
1.000000
1.000000
1.000000
1.000000
1.000000
1.000000
1.000000
1.000000
1.000000
1.000000
1.000000
1.000000
1.000000
1.000000
1.000000
1.000000
1.000000
1.000000
1.000000
1.000000
1.000000
1.000000
1.000000
1.000000
1.000000
1.000000
1.000000
1.000000
1.000000
1.000000
1.000000
1.000000
1.000000
1.000000
1.000000
1.000000
1.000000
1.000000
1.000000
1.000000
1.000000
1.000000
1.000000
1.000000
1.000000
1.000000
1.000000
1.000000
1.000000
1.000000
1.000000
1.000000
1.000000
1.000000
1.000000
1.000000
1.000000
1.000000
1.000000
1.000000
1.000000
1.000000
1.000000
1.000000
1.000000
1.000000
1.000000
1.000000
1.000000
1.000000
1.000000
1.000000
1.000000
1.000000
1.000000
1.000000
1.000000
1.000000
1.000000
1.000000
1.000000
1.000000
1.000000
1.000000
1.000000
1.000000
1.000000
1.000000
1.000000
1.000000
1.000000
1.000000
1.000000
1.000000
1.000000
1.000000
1.000000
1.000000
1.000000
1.000000
1.000000
1.000000
1.000000
1.000000
1.000000
1.000000
1.000000
1.000000
1.000000
1.000000
1.000000
1.000000
1.000000
1.000000
1.000000
1.000000
1.000000
1.000000
1.000000
1.000000
1.000000
1.000000
1.000000
1.000000
1.000000
1.000000
1.000000
1.000000
1.000000
</DataArray>