<VTKFile type="UnstructuredGrid" version="0.1" byte_order="LittleEndian">
<UnstructuredGrid>
<Piece NumberOfPoints="450" NumberOfCells="0">
<Points>
<DataArray name="Position" type="Float32" NumberOfComponents="3"  format="ascii">
-21.707658 -5.042557 0.000000
-20.695021 -4.520068 0.000000
-19.734269 -4.424613 0.000000
-18.697613 -4.371015 0.000000
-17.634243 -4.335417 0.000000
-16.555958 -4.309664 0.000000
-15.468081 -4.289852 0.000000
-14.373563 -4.273774 0.000000
-13.274264 -4.260054 0.000000
-12.171477 -4.247779 0.000000
-11.066186 -4.236344 0.000000
-9.959194 -4.225383 0.000000
-8.851156 -4.214748 0.000000
-7.742550 -4.204512 0.000000
-6.633552 -4.194976 0.000000
-5.523574 -4.186876 0.000000
-4.405998 -4.183616 0.000000
-3.352470 -4.132538 0.000000
-2.232564 -4.155247 0.000000
-1.116643 -4.159529 0.000000
-0.005146 -4.159377 0.000000
1.109132 -4.155084 0.000000
2.232570 -4.130262 0.000000
3.284578 -4.182456 0.000000
4.401782 -4.186047 0.000000
5.511814 -4.194068 0.000000
6.620983 -4.203386 0.000000
7.729937 -4.213176 0.000000
8.838898 -4.222831 0.000000
9.946867 -4.228880 0.000000
11.032205 -4.266320 0.000000
12.148950 -4.263199 0.000000
13.249474 -4.275388 0.000000
14.344507 -4.290905 0.000000
15.432705 -4.310412 0.000000
16.511296 -4.335938 0.000000
17.575208 -4.371251 0.000000
18.613837 -4.424024 0.000000
19.598561 -4.514320 0.000000
20.304724 -4.714020 0.000000
-21.235326 -4.006220 0.000000
-20.616760 -3.931696 0.000000
-19.676703 -3.871129 0.000000
-18.659410 -3.827363 0.000000
-17.607084 -3.796417 0.000000
-16.535452 -3.773498 0.000000
-15.451717 -3.755564 0.000000
-14.359786 -3.740705 0.000000
-13.262044 -3.727654 0.000000
-12.160110 -3.715518 0.000000
-11.055208 -3.703664 0.000000
-9.948358 -3.691694 0.000000
-8.840438 -3.679466 0.000000
-7.732138 -3.667097 0.000000
-6.623832 -3.654904 0.000000
-5.515238 -3.643210 0.000000
-4.402918 -3.631758 0.000000
-3.289041 -3.644905 0.000000
-2.258905 -3.585308 0.000000
-1.120583 -3.611804 0.000000
-0.001031 -3.611790 0.000000
1.126058 -3.589994 0.000000
2.168579 -3.643242 0.000000
3.281194 -3.630825 0.000000
4.393514 -3.642211 0.000000
5.502270 -3.653721 0.000000
6.610911 -3.665510 0.000000
7.720047 -3.676925 0.000000
8.829797 -3.686108 0.000000
9.895985 -3.747484 0.000000
11.034169 -3.718741 0.000000
12.137909 -3.729407 0.000000
13.236137 -3.741902 0.000000
14.328371 -3.756452 0.000000
15.412343 -3.774198 0.000000
16.484246 -3.797004 0.000000
17.537084 -3.827948 0.000000
18.555956 -3.872353 0.000000
19.502246 -3.940277 0.000000
20.107407 -4.035553 0.000000
-21.145459 -3.079042 0.000000
-20.557791 -3.026407 0.000000
-19.631471 -2.983565 0.000000
-18.626809 -2.951740 0.000000
-17.582981 -2.927843 0.000000
-16.516766 -2.909372 0.000000
-15.436408 -2.894377 0.000000
-14.346480 -2.881458 0.000000
-13.249752 -2.869579 0.000000
-12.148080 -2.857900 0.000000
-11.042897 -2.845730 0.000000
-9.935471 -2.832586 0.000000
-8.826975 -2.818297 0.000000
-7.718398 -2.803069 0.000000
-6.610266 -2.787397 0.000000
-5.501886 -2.771589 0.000000
-4.384455 -2.752573 0.000000
-3.313154 -2.749279 0.000000
-2.136812 -2.802207 0.000000
-1.142528 -2.753568 0.000000
0.020591 -2.754290 0.000000
1.011790 -2.801340 0.000000
2.191651 -2.747887 0.000000
3.262723 -2.751264 0.000000
4.380301 -2.770248 0.000000
5.489060 -2.785723 0.000000
6.598078 -2.800455 0.000000
7.708950 -2.812610 0.000000
8.782573 -2.867391 0.000000
9.916760 -2.848977 0.000000
11.023950 -2.859643 0.000000
12.126104 -2.870826 0.000000
13.223108 -2.882421 0.000000
14.313231 -2.895157 0.000000
15.393756 -2.910042 0.000000
16.460160 -2.928478 0.000000
17.504274 -2.952495 0.000000
18.509373 -2.984889 0.000000
19.435724 -3.029219 0.000000
20.021529 -3.082401 0.000000
-21.101326 -2.080081 0.000000
-20.520535 -2.052096 0.000000
-19.602210 -2.027211 0.000000
-18.604374 -2.007518 0.000000
-17.565510 -1.991799 0.000000
-16.502561 -1.978860 0.000000
-15.424173 -1.967627 0.000000
-14.335249 -1.957258 0.000000
-13.238703 -1.947032 0.000000
-12.136414 -1.936123 0.000000
-11.029928 -1.923636 0.000000
-9.920770 -1.908837 0.000000
-8.810538 -1.891388 0.000000
-7.700736 -1.871632 0.000000
-6.592197 -1.850466 0.000000
-5.483497 -1.829169 0.000000
-4.352338 -1.803085 0.000000
-3.314649 -1.795947 0.000000
-2.160505 -1.753932 0.000000
-2.133525 -0.854013 0.000000
0.999289 -0.811982 0.000000
1.039901 -1.749737 0.000000
2.192834 -1.793315 0.000000
3.230408 -1.801065 0.000000
4.362135 -1.827255 0.000000
5.471947 -1.847653 0.000000
6.583331 -1.865226 0.000000
7.666996 -1.915238 0.000000
8.794602 -1.912268 0.000000
9.905690 -1.925457 0.000000
11.012731 -1.937413 0.000000
12.115317 -1.948046 0.000000
13.212047 -1.958094 0.000000
14.301104 -1.968342 0.000000
15.379604 -1.979504 0.000000
16.442660 -1.992434 0.000000
17.481630 -2.008244 0.000000
18.479513 -2.028180 0.000000
19.397657 -2.053375 0.000000
19.978042 -2.081399 0.000000
-21.081430 -1.061685 0.000000
-20.502364 -1.051892 0.000000
-19.586955 -1.042590 0.000000
-18.591848 -1.034519 0.000000
-17.554945 -1.027251 0.000000
-16.493125 -1.020288 0.000000
-15.415196 -1.013156 0.000000
-14.326285 -1.005624 0.000000
-13.229150 -0.997533 0.000000
-12.125169 -0.987894 0.000000
-11.015920 -0.975177 0.000000
-9.903160 -0.958054 0.000000
-8.789086 -0.935476 0.000000
-7.676408 -0.907946 0.000000
-6.565710 -0.876113 0.000000
-5.460048 -0.846167 0.000000
-4.303414 -0.812242 0.000000
-3.314315 -0.811501 0.000000
-2.183642 -0.907743 0.000000
-1.029291 -0.799049 0.000000
-0.106326 -0.805436 0.000000
1.132494 -0.902585 0.000000
2.192830 -0.803370 0.000000
3.180523 -0.809177 0.000000
4.339352 -0.843182 0.000000
5.449275 -0.868555 0.000000
6.538446 -0.925344 0.000000
7.662980 -0.939100 0.000000
8.778841 -0.960035 0.000000
9.892196 -0.976567 0.000000
11.001761 -0.988975 0.000000
12.105933 -0.998429 0.000000
13.203201 -1.006393 0.000000
14.292208 -1.013831 0.000000
15.370205 -1.020904 0.000000
16.432072 -1.027852 0.000000
17.468995 -1.035161 0.000000
18.464065 -1.043323 0.000000
19.379353 -1.052720 0.000000
19.958253 -1.062555 0.000000
-21.080007 -0.038174 0.000000
-20.500627 -0.044804 0.000000
-19.584862 -0.050234 0.000000
-18.589226 -0.053620 0.000000
-17.551559 -0.054929 0.000000
-16.488667 -0.054084 0.000000
-15.409424 -0.050863 0.000000
-14.319704 -0.045652 0.000000
-13.222061 -0.040541 0.000000
-12.114886 -0.033561 0.000000
-11.000731 -0.020991 0.000000
-9.881236 -0.000891 0.000000
-8.758467 0.030930 0.000000
-7.640297 0.075466 0.000000
-6.518869 0.117581 0.000000
-5.444739 0.182121 0.000000
-4.212587 0.221360 0.000000
-3.344641 0.222178 0.000000
-2.171274 0.199120 0.000000
-0.893706 0.254289 0.000000
-0.260874 0.243884 0.000000
1.063872 0.206891 0.000000
2.204571 0.220625 0.000000
3.090389 0.224634 0.000000
4.326724 0.190808 0.000000
5.382376 0.103996 0.000000
6.514179 0.071666 0.000000
7.634098 0.028758 0.000000
8.757493 -0.002433 0.000000
9.877323 -0.022178 0.000000
10.991666 -0.034528 0.000000
12.098958 -0.041383 0.000000
13.196716 -0.046407 0.000000
14.286513 -0.051519 0.000000
15.365787 -0.054670 0.000000
16.428685 -0.055486 0.000000
17.466329 -0.054183 0.000000
18.461902 -0.050831 0.000000
19.377556 -0.045458 0.000000
19.956772 -0.038923 0.000000
-21.097143 0.980323 0.000000
-20.515357 0.955547 0.000000
-19.596087 0.934338 0.000000
-18.596666 0.919013 0.000000
-17.555515 0.908930 0.000000
-16.489189 0.903543 0.000000
-15.405666 0.903609 0.000000
-14.312997 0.912193 0.000000
-13.222466 0.910869 0.000000
-12.106394 0.909505 0.000000
-10.984485 0.921975 0.000000
-9.853970 0.944130 0.000000
-8.706796 1.000479 0.000000
-7.465942 0.742014 0.000000
-6.481848 1.149436 0.000000
-4.548927 0.473886 0.000000
-3.917333 1.251254 0.000000
-3.478484 0.665104 0.000000
-2.167232 1.227963 0.000000
-0.483060 1.073403 0.000000
-0.464282 1.308246 0.000000
1.131884 1.300679 0.000000
2.445349 0.757319 0.000000
2.809402 1.261437 0.000000
3.854015 0.886359 0.000000
5.355477 1.144771 0.000000
6.344655 0.735156 0.000000
7.583031 0.998819 0.000000
8.730588 0.942770 0.000000
9.861316 0.920897 0.000000
10.983325 0.908632 0.000000
12.099357 0.910023 0.000000
13.190142 0.911292 0.000000
14.282868 0.902954 0.000000
15.366362 0.902991 0.000000
16.432659 0.908421 0.000000
17.473762 0.918518 0.000000
18.473099 0.933836 0.000000
19.392231 0.955004 0.000000
19.973709 0.979629 0.000000
-21.138755 1.994658 0.000000
-20.550845 1.939357 0.000000
-19.622481 1.895716 0.000000
-18.614772 1.866063 0.000000
-17.567106 1.846343 0.000000
-16.495210 1.833937 0.000000
-15.402729 1.828946 0.000000
-14.245476 1.881379 0.000000
-13.294598 1.858923 0.000000
-12.094152 1.812217 0.000000
-10.967321 1.833658 0.000000
-9.827522 1.852954 0.000000
-8.637625 1.871509 0.000000
-7.228865 1.621504 0.000000
-6.533261 1.775076 0.000000
-4.660251 1.433993 0.000000
-8.896577 2.293621 0.000000
-3.517882 2.310648 0.000000
-2.301083 2.254434 0.000000
-1.394465 2.069003 0.000000
0.285175 2.036096 0.000000
1.100754 2.263060 0.000000
2.422309 2.310912 0.000000
7.773233 2.284830 0.000000
3.322144 1.224831 0.000000
5.407904 1.774464 0.000000
6.105276 1.621322 0.000000
7.514263 1.870119 0.000000
8.704437 1.851667 0.000000
9.844379 1.832634 0.000000
10.971332 1.811496 0.000000
12.170754 1.858606 0.000000
13.126069 1.878509 0.000000
14.280107 1.828351 0.000000
15.372441 1.833431 0.000000
16.444279 1.845882 0.000000
17.491879 1.865631 0.000000
18.499490 1.895303 0.000000
19.427700 1.938958 0.000000
20.015119 1.994261 0.000000
-21.220330 2.927846 0.000000
-20.613621 2.834947 0.000000
-19.664708 2.769964 0.000000
-18.642472 2.728585 0.000000
-17.585167 2.700832 0.000000
-16.506797 2.680799 0.000000
-15.410916 2.661488 0.000000
-14.259733 2.578186 0.000000
-14.064578 1.940904 0.000000
-12.050645 2.689241 0.000000
-10.953154 2.694030 0.000000
-9.809276 2.702758 0.000000
-8.633455 2.705857 0.000000
-7.414675 2.691751 0.000000
-5.673449 2.251501 0.000000
-4.298974 2.952594 0.000000
-2.978364 1.243172 0.000000
-3.010556 2.946184 0.000000
-0.533034 3.035312 0.000000
1.331745 2.231130 0.000000
1.860742 3.127114 0.000000
1.773014 1.135894 0.000000
3.163936 2.924766 0.000000
4.551009 2.248448 0.000000
6.291531 2.689915 0.000000
7.510589 2.704441 0.000000
8.686448 2.701496 0.000000
9.830420 2.692994 0.000000
10.928253 2.688406 0.000000
12.928423 1.949937 0.000000
13.137158 2.579039 0.000000
14.288278 2.661057 0.000000
15.384066 2.680343 0.000000
16.462375 2.700415 0.000000
17.519606 2.728206 0.000000
18.541738 2.769619 0.000000
19.490495 2.834650 0.000000
20.096890 2.927676 0.000000
-21.415752 3.608265 0.000000
-20.707143 3.410846 0.000000
-19.719483 3.323371 0.000000
-18.677049 3.273891 0.000000
-17.608217 3.242366 0.000000
-16.523204 3.220976 0.000000
-15.427170 3.204967 0.000000
-14.332887 3.193933 0.000000
-13.225864 3.262953 0.000000
-12.064456 3.205596 0.000000
-10.943567 3.197169 0.000000
-9.793839 3.204650 0.000000
-8.616603 3.216189 0.000000
-7.396843 3.238670 0.000000
-6.024773 3.271419 0.000000
-2.451413 1.303325 0.000000
0.680572 1.447954 0.000000
-3.644684 7.186823 0.000000
12.419430 -16.837534 0.000000
-13.638463 -16.733802 0.000000
2.698023 7.161118 0.000000
-1.953470 0.143554 0.000000
1.175926 2.535758 0.000000
4.902010 3.268968 0.000000
6.274097 3.236728 0.000000
7.493932 3.214647 0.000000
8.671205 3.203364 0.000000
9.820978 3.196086 0.000000
10.941986 3.204566 0.000000
12.103203 3.261679 0.000000
13.210023 3.193267 0.000000
14.304490 3.204489 0.000000
15.400505 3.220540 0.000000
16.485461 3.241982 0.000000
17.554216 3.273556 0.000000
18.596543 3.323079 0.000000
19.584057 3.410589 0.000000
20.292458 3.608040 0.000000
-7.886144 1.049071 0.000000
-9.021500 1.270569 0.000000
-3.776370 -3.979630 0.000000
-274.892857 -23.661122 0.000000
2.656849 -3.975110 0.000000
7.897632 1.266458 0.000000
6.759312 1.050998 0.000000
-6.242500 -0.500488 0.000000
-5.422860 2.294961 0.000000
-3.701746 -0.349021 0.000000
-0.920542 -0.196165 0.000000
-0.126195 -0.195693 0.000000
-24.672948 -52.102528 0.000000
2.536396 -0.370027 0.000000
4.280983 2.288824 0.000000
5.164816 -0.452163 0.000000
-5.136049 0.825718 0.000000
-4.011466 0.229048 0.000000
-3.169068 0.399356 0.000000
2.534406 -0.747976 0.000000
-0.753543 1.626518 0.000000
2.036362 0.383405 0.000000
2.881540 0.219544 0.000000
3.534336 0.344742 0.000000
-5.023514 1.586511 0.000000
-4.003050 1.403450 0.000000
-3.158806 2.605988 0.000000
-2.055586 1.474208 0.000000
-1.679189 1.790395 0.000000
-0.199440 1.439888 0.000000
1.042879 1.453837 0.000000
1.691238 1.592625 0.000000
2.890118 1.400821 0.000000
4.113485 1.786477 0.000000
-4.955742 2.630787 0.000000
-4.033857 2.428253 0.000000
-2.600121 3.056235 0.000000
-2.161324 2.350725 0.000000
-1.134878 2.333260 0.000000
-1.251536 3.048830 0.000000
1.032895 2.333906 0.000000
1.848094 2.359130 0.000000
2.911424 2.416966 0.000000
3.846128 2.650862 0.000000
-4.788602 3.246391 0.000000
-4.055314 3.072419 0.000000
-3.022584 2.943384 0.000000
-2.137990 2.954611 0.000000
-1.124882 2.960479 0.000000
0.010548 2.952261 0.000000
1.000418 2.958284 0.000000
1.909515 2.992759 0.000000
2.947959 3.075907 0.000000
3.677004 3.226567 0.000000
</DataArray>
</Points>
<PointData Vectors="vector">
<DataArray type="Float32" Name="Velocity" NumberOfComponents="3" format="ascii">
2.366498 1.839363 0.000000
1.789445 3.289311 0.000000
1.264663 3.551899 0.000000
1.032273 3.695520 0.000000
0.874200 3.788815 0.000000
0.756961 3.855770 0.000000
0.666098 3.907189 0.000000
0.593696 3.949090 0.000000
0.534815 3.985293 0.000000
0.485991 4.018462 0.000000
0.444468 4.050503 0.000000
0.407852 4.082646 0.000000
0.374106 4.115448 0.000000
0.341848 4.148856 0.000000
0.311212 4.182403 0.000000
0.287330 4.216462 0.000000
0.319557 4.271933 0.000000
-0.032450 4.509820 0.000000
-0.008705 4.311120 0.000000
0.008021 4.289227 0.000000
-0.000789 4.291157 0.000000
0.004404 4.317310 0.000000
0.043557 4.519813 0.000000
-0.314793 4.279875 0.000000
-0.284626 4.222176 0.000000
-0.308204 4.187588 0.000000
-0.337622 4.154434 0.000000
-0.367273 4.123024 0.000000
-0.393375 4.095260 0.000000
-0.443299 4.115056 0.000000
-0.563373 3.922756 0.000000
-0.545554 3.967724 0.000000
-0.600159 3.940178 0.000000
-0.670479 3.901352 0.000000
-0.759906 3.851625 0.000000
-0.875565 3.785989 0.000000
-1.030434 3.694430 0.000000
-1.250303 3.556047 0.000000
-1.595983 3.317118 0.000000
-3.021114 2.685462 0.000000
3.613400 1.395029 0.000000
1.878845 1.464022 0.000000
1.397479 1.594212 0.000000
1.118749 1.704642 0.000000
0.934784 1.784071 0.000000
0.802355 1.842897 0.000000
0.702308 1.889021 0.000000
0.624444 1.927605 0.000000
0.562659 1.962266 0.000000
0.512821 1.995819 0.000000
0.471627 2.030505 0.000000
0.436095 2.067854 0.000000
0.403575 2.108517 0.000000
0.372158 2.152325 0.000000
0.341897 2.198747 0.000000
0.320780 2.249697 0.000000
0.400852 2.330611 0.000000
0.061190 2.242680 0.000000
-0.098788 2.468335 0.000000
-0.019085 2.328610 0.000000
0.028575 2.329493 0.000000
0.065758 2.452040 0.000000
-0.049436 2.252423 0.000000
-0.397975 2.338881 0.000000
-0.318443 2.256802 0.000000
-0.338622 2.205451 0.000000
-0.366633 2.160265 0.000000
-0.391917 2.121510 0.000000
-0.417944 2.099285 0.000000
-0.627412 1.800407 0.000000
-0.529183 1.986853 0.000000
-0.567931 1.954465 0.000000
-0.628749 1.921658 0.000000
-0.705532 1.884456 0.000000
-0.804533 1.839244 0.000000
-0.935544 1.780993 0.000000
-1.116481 1.701464 0.000000
-1.385012 1.586388 0.000000
-1.815200 1.398535 0.000000
-3.634670 1.180410 0.000000
3.854989 0.771145 0.000000
2.011109 0.898077 0.000000
1.526136 1.016910 0.000000
1.212975 1.100909 0.000000
1.004317 1.164226 0.000000
0.856149 1.213077 0.000000
0.746407 1.252703 0.000000
0.662995 1.286965 0.000000
0.598883 1.318957 0.000000
0.549482 1.351683 0.000000
0.510912 1.388018 0.000000
0.479281 1.430117 0.000000
0.450836 1.478861 0.000000
0.422751 1.533886 0.000000
0.394427 1.593656 0.000000
0.377454 1.655140 0.000000
0.494572 1.725864 0.000000
-0.007603 1.723774 0.000000
0.253030 1.533914 0.000000
-0.148199 1.570392 0.000000
0.156931 1.567505 0.000000
-0.257279 1.540979 0.000000
0.015836 1.739874 0.000000
-0.493638 1.739257 0.000000
-0.376317 1.664707 0.000000
-0.390495 1.602410 0.000000
-0.412657 1.546320 0.000000
-0.430382 1.505886 0.000000
-0.610506 1.269899 0.000000
-0.527549 1.378691 0.000000
-0.554157 1.345557 0.000000
-0.602634 1.313610 0.000000
-0.666042 1.282415 0.000000
-0.748793 1.248862 0.000000
-0.857801 1.209718 0.000000
-1.004963 1.160987 0.000000
-1.211910 1.096891 0.000000
-1.522213 1.009261 0.000000
-2.006245 0.880862 0.000000
-3.862496 0.750644 0.000000
3.972792 0.437303 0.000000
2.106557 0.504450 0.000000
1.603615 0.574953 0.000000
1.272683 0.627238 0.000000
1.050783 0.668893 0.000000
0.893927 0.703228 0.000000
0.778986 0.733109 0.000000
0.692963 0.760581 0.000000
0.628962 0.787678 0.000000
0.583091 0.817968 0.000000
0.551234 0.855984 0.000000
0.528335 0.905461 0.000000
0.508788 0.967914 0.000000
0.488772 1.042633 0.000000
0.464646 1.130444 0.000000
0.442298 1.210592 0.000000
0.606046 1.298629 0.000000
0.052555 1.347047 0.000000
0.229558 1.727479 0.000000
2.476296 3.577040 0.000000
-1.435725 3.182793 0.000000
-0.191586 1.751028 0.000000
-0.044563 1.388571 0.000000
-0.613967 1.324313 0.000000
-0.444583 1.222937 0.000000
-0.457041 1.143550 0.000000
-0.468094 1.071274 0.000000
-0.596766 0.864032 0.000000
-0.545176 0.894460 0.000000
-0.557227 0.850048 0.000000
-0.587199 0.813160 0.000000
-0.632052 0.783406 0.000000
-0.695420 0.756776 0.000000
-0.780924 0.729709 0.000000
-0.895354 0.700086 0.000000
-1.051633 0.665723 0.000000
-1.272884 0.623485 0.000000
-1.603470 0.569732 0.000000
-2.107406 0.497441 0.000000
-3.976175 0.430158 0.000000
4.024699 0.157691 0.000000
2.154003 0.180878 0.000000
1.643951 0.206840 0.000000
1.305702 0.227900 0.000000
1.078708 0.246908 0.000000
0.919154 0.265543 0.000000
0.803128 0.285185 0.000000
0.716355 0.305361 0.000000
0.653557 0.325027 0.000000
0.615054 0.349870 0.000000
0.596263 0.389066 0.000000
0.590801 0.450265 0.000000
0.588959 0.538175 0.000000
0.585101 0.646706 0.000000
0.618139 0.834423 0.000000
0.494440 0.926778 0.000000
0.798552 1.060995 0.000000
0.072582 1.100911 0.000000
-5.087186 0.975522 0.000000
0.178889 1.262602 0.000000
-0.215748 1.248573 0.000000
4.277955 1.498607 0.000000
0.058773 1.345945 0.000000
-0.853162 1.097454 0.000000
-0.505416 0.938812 0.000000
-0.591228 0.867783 0.000000
-0.649166 0.575191 0.000000
-0.605701 0.525558 0.000000
-0.598082 0.443570 0.000000
-0.601085 0.384082 0.000000
-0.618514 0.345660 0.000000
-0.656220 0.321249 0.000000
-0.718444 0.301901 0.000000
-0.804769 0.282029 0.000000
-0.920452 0.262598 0.000000
-1.079726 0.243976 0.000000
-1.306553 0.224712 0.000000
-1.644935 0.203167 0.000000
-2.155572 0.176810 0.000000
-4.027181 0.153658 0.000000
4.027746 -0.107995 0.000000
2.158041 -0.124337 0.000000
1.648737 -0.140774 0.000000
1.311969 -0.150833 0.000000
1.087464 -0.154995 0.000000
0.931871 -0.152239 0.000000
0.820776 -0.140407 0.000000
0.733521 -0.122574 0.000000
0.665894 -0.116786 0.000000
0.642418 -0.106381 0.000000
0.647022 -0.067959 0.000000
0.677885 0.011961 0.000000
0.718083 0.163346 0.000000
0.718937 0.377455 0.000000
0.898163 0.370044 0.000000
0.452903 0.803792 0.000000
1.496557 1.180105 0.000000
-0.368062 1.227872 0.000000
0.430986 0.791939 0.000000
2.274709 0.832243 0.000000
-2.989843 0.462790 0.000000
-0.010141 0.814678 0.000000
0.067901 1.030978 0.000000
-1.520855 1.156726 0.000000
-0.480456 0.827987 0.000000
-0.996036 0.296724 0.000000
-0.737947 0.363643 0.000000
-0.726685 0.155750 0.000000
-0.683469 0.006353 0.000000
-0.650898 -0.072487 0.000000
-0.645357 -0.110238 0.000000
-0.668331 -0.120382 0.000000
-0.735315 -0.126057 0.000000
-0.822100 -0.143492 0.000000
-0.933009 -0.155011 0.000000
-1.088519 -0.157656 0.000000
-1.313048 -0.153536 0.000000
-1.650018 -0.143597 0.000000
-2.159685 -0.127272 0.000000
-4.030097 -0.111015 0.000000
3.981453 -0.388774 0.000000
2.118948 -0.448291 0.000000
1.617376 -0.509405 0.000000
1.290849 -0.551868 0.000000
1.076382 -0.579911 0.000000
0.932385 -0.593724 0.000000
0.841425 -0.584247 0.000000
0.766398 -0.519150 0.000000
0.625311 -0.567365 0.000000
0.663761 -0.602726 0.000000
0.701447 -0.564351 0.000000
0.810416 -0.474821 0.000000
0.917249 0.076805 0.000000
2.005779 -6.077408 0.000000
0.723744 0.260473 0.000000
7.410155 -9.257506 0.000000
2.991941 0.447536 0.000000
-0.719977 -7.166890 0.000000
0.083206 0.701864 0.000000
4.738839 -1.103619 0.000000
-2.871839 0.550079 0.000000
0.463015 1.304897 0.000000
1.886342 -6.101189 0.000000
-2.877184 0.503790 0.000000
-0.056307 -2.197230 0.000000
-0.744922 0.236726 0.000000
-1.963949 -6.149464 0.000000
-0.922663 0.073119 0.000000
-0.814837 -0.480207 0.000000
-0.704475 -0.568669 0.000000
-0.666135 -0.606209 0.000000
-0.628322 -0.570912 0.000000
-0.767564 -0.524199 0.000000
-0.842107 -0.587420 0.000000
-0.933281 -0.596317 0.000000
-1.077366 -0.582318 0.000000
-1.291950 -0.554205 0.000000
-1.618696 -0.511718 0.000000
-2.120520 -0.450652 0.000000
-3.984142 -0.391392 0.000000
3.873070 -0.667656 0.000000
2.023277 -0.801078 0.000000
1.543418 -0.931185 0.000000
1.240085 -1.013898 0.000000
1.043812 -1.068745 0.000000
0.916679 -1.103342 0.000000
0.869930 -1.111598 0.000000
1.761781 -0.498348 0.000000
0.131874 -1.084047 0.000000
0.721879 -1.235714 0.000000
0.751093 -1.149729 0.000000
0.895200 -1.120699 0.000000
1.295967 -1.140558 0.000000
2.393864 -2.895932 0.000000
0.190466 -2.199251 0.000000
7.140823 -9.746916 0.000000
-10.445331 0.133487 0.000000
-0.408758 0.030627 0.000000
-1.892176 -0.313922 0.000000
-1.871537 -0.750831 0.000000
1.309308 -1.423224 0.000000
1.376228 0.938336 0.000000
0.494797 -0.150402 0.000000
10.444508 0.082629 0.000000
-13.880224 -15.794125 0.000000
-0.207738 -2.200118 0.000000
-2.399707 -2.891498 0.000000
-1.301821 -1.138539 0.000000
-0.898272 -1.126150 0.000000
-0.753193 -1.154021 0.000000
-0.722927 -1.238623 0.000000
-0.135648 -1.081189 0.000000
-1.664394 -0.541962 0.000000
-0.869548 -1.114288 0.000000
-0.917337 -1.105683 0.000000
-1.044674 -1.070925 0.000000
-1.241108 -1.015950 0.000000
-1.544669 -0.933121 0.000000
-2.024684 -0.802855 0.000000
-3.876122 -0.669422 0.000000
3.655380 -1.158319 0.000000
1.838119 -1.371481 0.000000
1.415180 -1.550906 0.000000
1.155722 -1.659864 0.000000
0.987162 -1.734386 0.000000
0.876080 -1.792362 0.000000
0.821558 -1.868604 0.000000
0.973607 -2.432509 0.000000
-1.826090 -3.637822 0.000000
0.904351 -1.787109 0.000000
0.775255 -1.771128 0.000000
0.882192 -1.804321 0.000000
1.052949 -2.124538 0.000000
1.217448 -2.208650 0.000000
3.513278 -3.665798 0.000000
8.506769 -5.091375 0.000000
5.013788 -0.177498 0.000000
-9.249945 -6.466699 0.000000
2.378069 -1.017753 0.000000
21.409432 -14.387408 0.000000
2.159777 -2.533677 0.000000
-6.045063 -1.372131 0.000000
-8.654554 -5.468185 0.000000
-3.489648 -3.696339 0.000000
-1.222466 -2.216429 0.000000
-1.055606 -2.125979 0.000000
-0.883894 -1.809735 0.000000
-0.776496 -1.775581 0.000000
-0.903925 -1.790809 0.000000
1.708338 -3.594476 0.000000
-0.977955 -2.426081 0.000000
-0.821747 -1.870248 0.000000
-0.876632 -1.794481 0.000000
-0.987881 -1.736403 0.000000
-1.156615 -1.661732 0.000000
-1.416308 -1.552619 0.000000
-1.839541 -1.372945 0.000000
-3.657850 -1.159403 0.000000
3.045003 -2.651094 0.000000
1.626483 -3.277754 0.000000
1.287118 -3.510429 0.000000
1.076349 -3.641445 0.000000
0.933669 -3.725171 0.000000
0.834425 -3.783973 0.000000
0.763109 -3.833747 0.000000
0.653902 -3.844030 0.000000
0.601272 -3.390449 0.000000
0.828299 -3.823117 0.000000
0.774188 -3.905440 0.000000
0.858100 -3.937050 0.000000
0.982573 -4.012267 0.000000
1.175427 -3.969377 0.000000
2.008263 -3.772127 0.000000
5.782391 -12.616097 0.000000
8.462986 -1.627800 0.000000
-3.194775 3.586109 0.000000
32.259544 -37.914911 0.000000
-32.515229 -37.642210 0.000000
3.708023 3.374310 0.000000
-10.028978 -10.103226 0.000000
-7.355544 -4.854688 0.000000
-2.012659 -3.783655 0.000000
-1.178373 -3.978045 0.000000
-0.984392 -4.018361 0.000000
-0.859175 -3.942560 0.000000
-0.774903 -3.910201 0.000000
-0.828155 -3.827826 0.000000
-0.601595 -3.396376 0.000000
-0.655866 -3.848005 0.000000
-0.763676 -3.835921 0.000000
-0.834888 -3.786040 0.000000
-0.934245 -3.727057 0.000000
-1.077098 -3.643136 0.000000
-1.288100 -3.511947 0.000000
-1.627771 -3.279170 0.000000
-3.046982 -2.652366 0.000000
-4.553659 -0.765633 0.000000
-7.244250 -4.088387 0.000000
1.346971 -14.082280 0.000000
-483.018437 -49.834228 0.000000
-1.332438 -14.060959 0.000000
7.235440 -4.109093 0.000000
4.493727 -0.714256 0.000000
-4.364901 -9.418336 0.000000
-2.255103 -3.460301 0.000000
-0.381763 -9.675354 0.000000
-0.900653 -8.879097 0.000000
1.728881 -8.701184 0.000000
-74.116332 -159.348180 0.000000
-0.069727 -9.982772 0.000000
2.121148 -3.491624 0.000000
4.661137 -9.107303 0.000000
-1.721634 -3.535539 0.000000
0.316942 -12.298991 0.000000
-1.255926 -11.559015 0.000000
10.630386 -14.834141 0.000000
2.556726 -10.337138 0.000000
1.086591 -11.664921 0.000000
-0.439146 -12.365075 0.000000
-5.942392 -10.941774 0.000000
-2.872688 -5.105602 0.000000
1.365518 -12.809658 0.000000
1.083369 -3.903780 0.000000
2.306030 -11.699588 0.000000
-3.311715 -9.087739 0.000000
-1.425318 -12.305719 0.000000
-1.133602 -12.105321 0.000000
-1.646755 -11.226779 0.000000
-1.325026 -12.881582 0.000000
9.568078 0.932982 0.000000
-1.865271 -9.658072 0.000000
1.075072 -12.757612 0.000000
5.712753 -5.022280 0.000000
-0.234461 -13.330885 0.000000
0.123683 -13.252442 0.000000
-21.562680 -4.031502 0.000000
0.637691 -14.476347 0.000000
-2.079861 -13.070124 0.000000
-1.079673 -12.825294 0.000000
2.012994 -9.312545 0.000000
2.381791 -14.099379 0.000000
0.980689 -14.584238 0.000000
7.137208 -17.161834 0.000000
-0.052086 -14.883726 0.000000
1.188453 -12.940846 0.000000
-0.031852 -14.829263 0.000000
-0.105676 -14.977781 0.000000
-2.543472 -14.751646 0.000000
-0.919048 -14.591015 0.000000
-2.344044 -14.178323 0.000000
</DataArray>
<DataArray type="Float32" Name="Masse" format="ascii">
1.000000
1.000000
1.000000
1.000000
1.000000
1.000000
1.000000
1.000000
1.000000
1.000000
1.000000
1.000000
1.000000
1.000000
1.000000
1.000000
1.000000
1.000000
1.000000
1.000000
1.000000
1.000000
1.000000
1.000000
1.000000
1.000000
1.000000
1.000000
1.000000
1.000000
1.000000
1.000000
1.000000
1.000000
1.000000
1.000000
1.000000
1.000000
1.000000
1.000000
1.000000
1.000000
1.000000
1.000000
1.000000
1.000000
1.000000
1.000000
1.000000
1.000000
1.000000
1.000000
1.000000
1.000000
1.000000
1.000000
1.000000
1.000000
1.000000
1.000000
1.000000
1.000000
1.000000
1.000000
1.000000
1.000000
1.000000
1.000000
1.000000
1.000000
1.000000
1.000000
1.000000
1.000000
1.000000
1.000000
1.000000
1.000000
1.000000
1.000000
1.000000
1.000000
1.000000
1.000000
1.000000
1.000000
1.000000
1.000000
1.000000
1.000000
1.000000
1.000000
1.000000
1.000000
1.000000
1.000000
1.000000
1.000000
1.000000
1.000000
1.000000
1.000000
1.000000
1.000000
1.000000
1.000000
1.000000
1.000000
1.000000
1.000000
1.000000
1.000000
1.000000
1.000000
1.000000
1.000000
1.000000
1.000000
1.000000
1.000000
1.000000
1.000000
1.000000
1.000000
1.000000
1.000000
1.000000
1.000000
1.000000
1.000000
1.000000
1.000000
1.000000
1.000000
1.000000
1.000000
1.000000
1.000000
1.000000
1.000000
1.000000
1.000000
1.000000
1.000000
1.000000
1.000000
1.000000
1.000000
1.000000
1.000000
1.000000
1.000000
1.000000
1.000000
1.000000
1.000000
1.000000
1.000000
1.000000
1.000000
1.000000
1.000000
1.000000
1.000000
1.000000
1.000000
1.000000
1.000000
1.000000
1.000000
1.000000
1.000000
1.000000
1.000000
1.000000
1.000000
1.000000
1.000000
1.000000
1.000000
1.000000
1.000000
1.000000
1.000000
1.000000
1.000000
1.000000
1.000000
1.000000
1.000000
1.000000
1.000000
1.000000
1.000000
1.000000
1.000000
1.000000
1.000000
1.000000
1.000000
1.000000
1.000000
1.000000
1.000000
1.000000
1.000000
1.000000
1.000000
1.000000
1.000000
1.000000
1.000000
1.000000
1.000000
1.000000
1.000000
1.000000
1.000000
1.000000
1.000000
1.000000
1.000000
1.000000
1.000000
1.000000
1.000000
1.000000
1.000000
1.000000
1.000000
1.000000
1.000000
1.000000
1.000000
1.000000
1.000000
1.000000
1.000000
1.000000
1.000000
1.000000
1.000000
1.000000
1.000000
1.000000
1.000000
1.000000
1.000000
1.000000
1.000000
1.000000
1.000000
1.000000
1.000000
1.000000
1.000000
1.000000
1.000000
1.000000
1.000000
1.000000
1.000000
1.000000
1.000000
1.000000
1.000000
1.000000
1.000000
1.000000
1.000000
1.000000
1.000000
1.000000
1.000000
1.000000
1.000000
1.000000
1.000000
1.000000
1.000000
1.000000
1.000000
1.000000
1.000000
1.000000
1.000000
1.000000
1.000000
1.000000
1.000000
1.000000
1.000000
1.000000
1.000000
1.000000
1.000000
1.000000
1.000000
1.000000
1.000000
1.000000
1.000000
1.000000
1.000000
1.000000
1.000000
1.000000
1.000000
1.000000
1.000000
1.000000
1.000000
1.000000
1.000000
1.000000
1.000000
1.000000
1.000000
1.000000
1.000000
1.000000
1.000000
1.000000
1.000000
1.000000
1.000000
1.000000
1.000000
1.000000
1.000000
1.000000
1.000000
1.000000
1.000000
1.000000
1.000000
1.000000
1.000000
1.000000
1.000000
1.000000
1.000000
1.000000
1.000000
1.000000
1.000000
1.000000
1.000000
1.000000
1.000000
1.000000
1.000000
1.000000
1.000000
1.000000
1.000000
1.000000
1.000000
1.000000
1.000000
1.000000
1.000000
1.000000
1.000000
1.000000
1.000000
1.000000
1.000000
1.000000
1.000000
1.000000
1.000000
1.000000
1.000000
1.000000
1.000000
1.000000
1.000000
1.000000
1.000000
1.000000
1.000000
1.000000
1.000000
1.000000
1.000000
1.000000
1.000000
1.000000
1.000000
1.000000
1.000000
1.000000
1.000000
1.000000
1.000000
1.000000
1.000000
1.000000
1.000000
1.000000
1.000000
1.000000
1.000000
1.000000
1.000000
1.000000
1.000000
1.000000
1.000000
1.000000
1.000000
1.000000
1.000000
1.000000
1.000000
1.000000
1.000000
1.000000
1.000000
1.000000
1.000000
1.000000
1.000000
1.000000
1.000000
1.000000
1.000000
1.000000
1.000000
1.000000
1.000000
1.000000
1.000000
1.000000
1.000000
1.000000
1.000000
1.000000
1.000000
1.000000
1.000000
1.000000
1.000000
1.000000
1.000000
1.000000
1.000000
1.000000
1.000000
</DataArray>
</PointData>
<Cells>