<VTKFile type="UnstructuredGrid" version="0.1" byte_order="LittleEndian">
<UnstructuredGrid>
<Piece NumberOfPoints="450" NumberOfCells="0">
<Points>
<DataArray name="Position" type="Float32" NumberOfComponents="3"  format="ascii">
-21.450378 -4.840081 0.000000
-20.501497 -4.145432 0.000000
-19.598422 -4.023222 0.000000
-18.586436 -3.953516 0.000000
-17.540067 -3.907580 0.000000
-16.474405 -3.874466 0.000000
-15.396278 -3.849035 0.000000
-14.309482 -3.828406 0.000000
-13.216403 -3.810781 0.000000
-12.118704 -3.794953 0.000000
-11.017671 -3.780100 0.000000
-9.914368 -3.765711 0.000000
-8.809679 -3.751551 0.000000
-7.704257 -3.737664 0.000000
-6.598268 -3.724448 0.000000
-5.490223 -3.712851 0.000000
-4.362984 -3.705676 0.000000
-3.363269 -3.624609 0.000000
-2.236069 -3.673335 0.000000
-1.116276 -3.677569 0.000000
-0.004405 -3.677129 0.000000
1.112040 -3.671777 0.000000
2.244864 -3.620788 0.000000
3.242010 -3.703088 0.000000
4.368530 -3.711056 0.000000
5.476686 -3.722840 0.000000
6.583053 -3.735900 0.000000
7.689231 -3.749177 0.000000
8.795937 -3.762021 0.000000
9.893636 -3.757122 0.000000
10.972027 -3.825260 0.000000
12.090174 -3.815993 0.000000
13.184778 -3.830995 0.000000
14.272279 -3.850700 0.000000
15.350874 -3.875632 0.000000
16.417020 -3.908364 0.000000
17.464312 -3.953797 0.000000
18.479799 -4.021996 0.000000
19.432476 -4.135949 0.000000
19.968361 -4.413518 0.000000
-20.827176 -3.854635 0.000000
-20.422318 -3.782230 0.000000
-19.530463 -3.710731 0.000000
-18.542019 -3.656505 0.000000
-17.508762 -3.617738 0.000000
-16.450884 -3.588944 0.000000
-15.377548 -3.566357 0.000000
-14.293702 -3.547553 0.000000
-13.202348 -3.530889 0.000000
-12.105517 -3.515157 0.000000
-11.004773 -3.499463 0.000000
-9.901440 -3.483222 0.000000
-8.796662 -3.466188 0.000000
-7.691354 -3.448455 0.000000
-6.585947 -3.430476 0.000000
-5.479073 -3.412695 0.000000
-4.355765 -3.394339 0.000000
-3.290420 -3.426756 0.000000
-2.268728 -3.327192 0.000000
-1.123184 -3.371602 0.000000
0.002944 -3.371489 0.000000
1.133117 -3.333902 0.000000
2.171851 -3.423631 0.000000
3.234324 -3.391720 0.000000
4.357277 -3.410424 0.000000
5.464491 -3.428356 0.000000
6.570578 -3.445868 0.000000
7.677540 -3.462015 0.000000
8.784538 -3.473384 0.000000
9.833619 -3.575845 0.000000
10.977152 -3.517341 0.000000
12.077746 -3.533218 0.000000
13.169617 -3.549291 0.000000
14.253873 -3.567678 0.000000
15.327562 -3.590000 0.000000
16.385878 -3.618635 0.000000
17.420020 -3.657454 0.000000
18.411354 -3.713050 0.000000
19.317880 -3.800967 0.000000
19.696714 -3.914168 0.000000
-20.714083 -2.996707 0.000000
-20.350617 -2.932742 0.000000
-19.469382 -2.875882 0.000000
-18.497758 -2.835115 0.000000
-17.476044 -2.804484 0.000000
-16.425530 -2.780823 0.000000
-15.356778 -2.761618 0.000000
-14.275633 -2.745059 0.000000
-13.185591 -2.729770 0.000000
-12.088974 -2.714561 0.000000
-10.987627 -2.698395 0.000000
-9.883227 -2.680536 0.000000
-8.777309 -2.660664 0.000000
-7.671157 -2.638819 0.000000
-6.565831 -2.615647 0.000000
-5.459226 -2.592749 0.000000
-4.329505 -2.565489 0.000000
-3.313434 -2.561527 0.000000
-2.112282 -2.636871 0.000000
-1.160491 -2.586676 0.000000
0.039796 -2.587834 0.000000
0.987368 -2.635205 0.000000
2.194092 -2.557152 0.000000
3.207916 -2.559810 0.000000
4.336814 -2.589625 0.000000
5.444666 -2.612920 0.000000
6.551838 -2.634754 0.000000
7.661345 -2.651834 0.000000
8.716654 -2.732829 0.000000
9.859572 -2.702058 0.000000
10.964466 -2.716726 0.000000
12.061615 -2.731481 0.000000
13.151970 -2.746455 0.000000
14.233368 -2.762774 0.000000
15.302366 -2.781825 0.000000
16.353188 -2.805450 0.000000
17.375397 -2.836306 0.000000
18.347821 -2.878104 0.000000
19.229359 -2.937683 0.000000
19.589264 -3.002577 0.000000
-20.657149 -2.033203 0.000000
-20.303923 -1.999455 0.000000
-19.431835 -1.966230 0.000000
-18.468925 -1.940950 0.000000
-17.453596 -1.920790 0.000000
-16.407279 -1.904189 0.000000
-15.341055 -1.889765 0.000000
-14.261203 -1.876476 0.000000
-13.171321 -1.863384 0.000000
-12.073646 -1.849219 0.000000
-10.970179 -1.832519 0.000000
-9.863005 -1.812137 0.000000
-8.754185 -1.787574 0.000000
-7.645077 -1.758672 0.000000
-6.539280 -1.722611 0.000000
-5.433530 -1.695152 0.000000
-4.282187 -1.654595 0.000000
-3.309185 -1.637860 0.000000
-2.141913 -1.554774 0.000000
-2.026573 -0.558138 0.000000
0.915914 -0.505299 0.000000
1.026604 -1.550011 0.000000
2.193375 -1.627673 0.000000
3.246420 -1.587449 0.000000
4.309544 -1.691649 0.000000
5.419557 -1.719487 0.000000
6.529651 -1.748963 0.000000
7.601289 -1.822596 0.000000
8.734857 -1.816359 0.000000
9.845345 -1.834767 0.000000
10.949554 -1.850896 0.000000
12.047627 -1.864781 0.000000
13.137754 -1.877674 0.000000
14.217793 -1.890814 0.000000
15.284186 -1.905148 0.000000
16.330678 -1.921753 0.000000
17.346193 -1.942084 0.000000
18.309196 -1.967794 0.000000
19.181011 -2.001556 0.000000
19.533478 -2.035365 0.000000
-20.631667 -1.044830 0.000000
-20.280915 -1.033078 0.000000
-19.412281 -1.020724 0.000000
-18.452878 -1.010411 0.000000
-17.440050 -1.001119 0.000000
-16.395135 -0.992153 0.000000
-15.329481 -0.982880 0.000000
-14.249770 -0.973184 0.000000
-13.159206 -0.963103 0.000000
-12.058921 -0.950854 0.000000
-10.951086 -0.933693 0.000000
-9.838308 -0.909426 0.000000
-8.723642 -0.876937 0.000000
-7.608747 -0.837170 0.000000
-6.419344 -0.814396 0.000000
-5.403723 -0.742972 0.000000
-4.181043 -0.674160 0.000000
-3.344999 -0.650627 0.000000
-2.569064 -0.692184 0.000000
-0.840044 -0.694156 0.000000
-0.046420 -0.626867 0.000000
1.512614 -0.704392 0.000000
2.163862 -0.674502 0.000000
3.039612 -0.663289 0.000000
4.278966 -0.739474 0.000000
5.235123 -0.872664 0.000000
6.463379 -0.862182 0.000000
7.595502 -0.881685 0.000000
8.713168 -0.911963 0.000000
9.826823 -0.935501 0.000000
10.935134 -0.952308 0.000000
12.035702 -0.964351 0.000000
13.126464 -0.974290 0.000000
14.206323 -0.983870 0.000000
15.272087 -0.993067 0.000000
16.317082 -1.002025 0.000000
17.329951 -1.011395 0.000000
18.289302 -1.021864 0.000000
19.157755 -1.034365 0.000000
19.508212 -1.046155 0.000000
-20.629959 -0.049900 0.000000
-20.278753 -0.057937 0.000000
-19.409698 -0.065343 0.000000
-18.449604 -0.069832 0.000000
-17.435730 -0.071599 0.000000
-16.389268 -0.070423 0.000000
-15.321684 -0.065749 0.000000
-14.241372 -0.058401 0.000000
-13.151156 -0.053145 0.000000
-12.045641 -0.045347 0.000000
-10.929875 -0.028191 0.000000
-9.805815 0.002759 0.000000
-8.678886 0.051606 0.000000
-7.548606 0.130376 0.000000
-6.420438 0.151868 0.000000
-5.375552 0.280170 0.000000
-4.046909 0.305766 0.000000
-3.395895 0.351653 0.000000
-2.099186 0.269669 0.000000
-0.615297 0.341613 0.000000
-0.591728 0.321319 0.000000
1.053516 0.322125 0.000000
2.180485 0.313725 0.000000
2.873882 0.329176 0.000000
4.257052 0.276955 0.000000
5.274259 0.128651 0.000000
6.419359 0.125802 0.000000
7.553478 0.048689 0.000000
8.681392 0.000716 0.000000
9.806005 -0.029794 0.000000
10.922081 -0.046673 0.000000
12.027771 -0.054334 0.000000
13.118183 -0.059512 0.000000
14.198635 -0.066722 0.000000
15.266273 -0.071292 0.000000
16.312751 -0.072432 0.000000
17.326601 -0.070682 0.000000
18.286609 -0.066246 0.000000
19.155522 -0.058911 0.000000
19.506459 -0.050977 0.000000
-20.652199 0.938367 0.000000
-20.297416 0.908467 0.000000
-19.424304 0.880035 0.000000
-18.459337 0.860133 0.000000
-17.440882 0.847029 0.000000
-16.389651 0.840200 0.000000
-15.315108 0.841762 0.000000
-14.230298 0.860520 0.000000
-13.157920 0.850067 0.000000
-12.034566 0.844289 0.000000
-10.906885 0.861409 0.000000
-9.727751 0.887617 0.000000
-8.610302 1.010784 0.000000
-7.272592 0.121326 0.000000
-6.405959 1.182165 0.000000
-3.716188 -0.425488 0.000000
-3.737091 1.272203 0.000000
-3.493603 -0.080534 0.000000
-2.126359 1.299569 0.000000
0.076771 0.931764 0.000000
-0.796888 1.271921 0.000000
0.021437 0.221599 0.000000
2.674670 0.084555 0.000000
2.687666 1.337204 0.000000
3.821394 0.655634 0.000000
5.277027 1.176997 0.000000
6.156152 0.106430 0.000000
7.486221 1.008920 0.000000
8.604758 0.886846 0.000000
9.783337 0.859909 0.000000
10.911216 0.843083 0.000000
12.034442 0.848884 0.000000
13.107297 0.858958 0.000000
14.192258 0.840766 0.000000
15.266733 0.839382 0.000000
16.317924 0.846271 0.000000
17.336319 0.859393 0.000000
18.301179 0.879288 0.000000
19.174148 0.907669 0.000000
19.528454 0.937394 0.000000
-20.705541 1.923837 0.000000
-20.342593 1.856557 0.000000
-19.458744 1.797260 0.000000
-18.482964 1.758637 0.000000
-17.456023 1.733002 0.000000
-16.397383 1.716857 0.000000
-15.308405 1.711028 0.000000
-14.108587 1.541569 0.000000
-13.288446 1.736448 0.000000
-12.014752 1.678534 0.000000
-10.884250 1.710071 0.000000
-9.723083 1.733815 0.000000
-8.512085 1.745301 0.000000
-6.969926 1.315847 0.000000
-6.507721 1.522638 0.000000
-3.911934 0.438329 0.000000
-9.936129 2.299479 0.000000
-3.540610 2.319032 0.000000
-2.394926 2.193785 0.000000
-1.569156 1.962371 0.000000
0.436251 1.873393 0.000000
0.985842 2.319342 0.000000
2.449663 2.297548 0.000000
8.812370 2.284482 0.000000
1.841645 -0.231882 0.000000
5.377216 1.524204 0.000000
5.845219 1.316608 0.000000
7.388027 1.744182 0.000000
8.599462 1.732150 0.000000
9.761028 1.708607 0.000000
10.891802 1.677533 0.000000
12.164343 1.736510 0.000000
12.976461 1.555910 0.000000
14.185865 1.710171 0.000000
15.274544 1.716115 0.000000
16.333104 1.732317 0.000000
17.359964 1.757991 0.000000
18.335622 1.796644 0.000000
19.219332 1.855980 0.000000
19.581549 1.923247 0.000000
-20.807697 2.808158 0.000000
-20.426903 2.697772 0.000000
-19.516913 2.613847 0.000000
-18.521199 2.561829 0.000000
-17.481232 2.526544 0.000000
-16.414246 2.500286 0.000000
-15.323754 2.471332 0.000000
-14.159851 2.308516 0.000000
-14.197167 1.858920 0.000000
-11.952154 2.512049 0.000000
-10.868038 2.519922 0.000000
-9.705585 2.508979 0.000000
-8.532093 2.483232 0.000000
-7.288306 2.464436 0.000000
-5.496481 2.085486 0.000000
-3.357581 2.297332 0.000000
-2.445683 1.216883 0.000000
-3.794026 -0.463552 0.000000
-0.296901 2.881024 0.000000
3.410850 0.766002 0.000000
2.077473 2.769869 0.000000
1.201534 1.045587 0.000000
2.182941 2.125970 0.000000
4.375624 2.047462 0.000000
6.164068 2.461549 0.000000
7.408566 2.481668 0.000000
8.582811 2.507789 0.000000
9.745139 2.518425 0.000000
10.829782 2.510856 0.000000
13.071592 1.850683 0.000000
13.036594 2.310218 0.000000
14.201091 2.470771 0.000000
15.291453 2.499615 0.000000
16.358361 2.525916 0.000000
17.398237 2.561251 0.000000
18.393824 2.613318 0.000000
19.303638 2.697327 0.000000
19.683969 2.807881 0.000000
-21.076998 3.311261 0.000000
-20.537818 3.036628 0.000000
-19.581771 2.926048 0.000000
-18.561564 2.861973 0.000000
-17.508091 2.821202 0.000000
-16.433774 2.793385 0.000000
-15.345338 2.772191 0.000000
-14.263263 2.766776 0.000000
-13.163252 2.896157 0.000000
-11.972496 2.771480 0.000000
-10.860414 2.749909 0.000000
-9.701528 2.747858 0.000000
-8.517950 2.756634 0.000000
-7.276862 2.791654 0.000000
-5.811463 2.856272 0.000000
-1.825917 0.097541 0.000000
2.618092 2.493820 0.000000
-3.962329 7.529423 0.000000
15.643889 -20.625149 0.000000
-16.888471 -20.494132 0.000000
3.066946 7.482577 0.000000
-2.976747 -0.826725 0.000000
0.577397 1.971103 0.000000
4.688106 2.851079 0.000000
6.153388 2.788484 0.000000
7.394855 2.754369 0.000000
8.578741 2.746110 0.000000
9.737700 2.748313 0.000000
10.850023 2.769922 0.000000
12.040552 2.894244 0.000000
13.140117 2.765585 0.000000
14.222586 2.771494 0.000000
15.311017 2.792742 0.000000
16.385268 2.820628 0.000000
17.438648 2.861467 0.000000
18.458729 2.925602 0.000000
19.414608 3.036212 0.000000
19.953487 3.310898 0.000000
-8.342357 0.962580 0.000000
-9.760750 0.863805 0.000000
-3.631847 -5.345329 0.000000
-323.194674 -28.644542 0.000000
2.513977 -5.338314 0.000000
8.634817 0.856542 0.000000
7.209042 0.969447 0.000000
-6.745465 -1.407044 0.000000
-5.407337 1.702464 0.000000
-3.728459 -1.279615 0.000000
-1.172604 -1.010518 0.000000
-0.048228 -1.069261 0.000000
-32.084364 -68.036829 0.000000
2.517133 -1.347895 0.000000
4.269130 1.688744 0.000000
5.768286 -1.256285 0.000000
-5.289708 0.461900 0.000000
-4.001732 -0.959833 0.000000
-3.359008 -0.738259 0.000000
3.494172 -2.249997 0.000000
-0.387008 0.597163 0.000000
2.308785 -0.715037 0.000000
2.867295 -0.979303 0.000000
2.885358 -0.755122 0.000000
-5.287179 1.063934 0.000000
-3.743862 0.114905 0.000000
-2.576746 3.999561 0.000000
-1.929854 0.276766 0.000000
-2.053173 0.876308 0.000000
-0.520971 0.283732 0.000000
1.062504 0.280825 0.000000
1.410475 0.434877 0.000000
2.633107 0.028841 0.000000
5.040118 1.914709 0.000000
-5.145539 1.638739 0.000000
-3.892507 1.137955 0.000000
-2.036212 2.565551 0.000000
-2.212358 0.999390 0.000000
-1.154793 0.985125 0.000000
-3.408218 2.478670 0.000000
1.311136 0.928814 0.000000
1.605647 0.993312 0.000000
2.755367 1.110406 0.000000
4.057219 1.690954 0.000000
-4.530330 1.781543 0.000000
-4.015851 1.637657 0.000000
-2.900647 2.083695 0.000000
-2.182432 1.414191 0.000000
-1.033240 1.620711 0.000000
0.019353 1.425375 0.000000
0.990746 1.330405 0.000000
1.649188 1.486105 0.000000
2.967272 1.714581 0.000000
3.425243 1.752617 0.000000
</DataArray>
</Points>
<PointData Vectors="vector">
<DataArray type="Float32" Name="Velocity" NumberOfComponents="3" format="ascii">
2.782795 2.214134 0.000000
2.074000 4.318021 0.000000
1.469152 4.584089 0.000000
1.207765 4.777996 0.000000
1.022726 4.899709 0.000000
0.885030 4.984992 0.000000
0.779175 5.049214 0.000000
0.696082 5.100375 0.000000
0.630027 5.143310 0.000000
0.576978 5.181306 0.000000
0.533610 5.216724 0.000000
0.496973 5.251296 0.000000
0.464466 5.286512 0.000000
0.433575 5.323458 0.000000
0.403363 5.360307 0.000000
0.385090 5.390999 0.000000
0.505696 5.406252 0.000000
0.007637 5.913029 0.000000
-0.065781 5.423177 0.000000
-0.004035 5.476021 0.000000
0.019289 5.479814 0.000000
0.055958 5.450074 0.000000
0.013297 5.935811 0.000000
-0.500145 5.431233 0.000000
-0.387637 5.407076 0.000000
-0.404315 5.369211 0.000000
-0.430628 5.330003 0.000000
-0.454911 5.293593 0.000000
-0.472503 5.255815 0.000000
-0.717014 5.611699 0.000000
-0.638795 5.014943 0.000000
-0.636308 5.116397 0.000000
-0.701520 5.088871 0.000000
-0.783108 5.042450 0.000000
-0.887547 4.980676 0.000000
-1.023315 4.897384 0.000000
-1.204022 4.778692 0.000000
-1.448136 4.594261 0.000000
-1.686856 4.382610 0.000000
-3.746650 3.364051 0.000000
4.653836 1.629319 0.000000
1.957054 1.466320 0.000000
1.499414 1.530881 0.000000
1.208499 1.612274 0.000000
1.016148 1.680346 0.000000
0.876915 1.733619 0.000000
0.771265 1.777059 0.000000
0.688974 1.815101 0.000000
0.624080 1.851464 0.000000
0.572603 1.889595 0.000000
0.531289 1.932571 0.000000
0.497262 1.982689 0.000000
0.468087 2.041558 0.000000
0.441014 2.110287 0.000000
0.413552 2.185934 0.000000
0.398898 2.264213 0.000000
0.527668 2.349478 0.000000
-0.150278 1.938200 0.000000
-0.082817 2.639996 0.000000
-0.031225 2.387643 0.000000
0.048821 2.388080 0.000000
0.063792 2.608489 0.000000
0.180793 1.957116 0.000000
-0.522059 2.382804 0.000000
-0.405782 2.286921 0.000000
-0.416240 2.198791 0.000000
-0.438049 2.123212 0.000000
-0.454844 2.063190 0.000000
-0.483959 2.044085 0.000000
-0.528579 1.361316 0.000000
-0.614229 1.945697 0.000000
-0.628857 1.850542 0.000000
-0.693772 1.811022 0.000000
-0.774825 1.773262 0.000000
-0.879118 1.730246 0.000000
-1.016355 1.677059 0.000000
-1.204130 1.607538 0.000000
-1.478092 1.514206 0.000000
-1.797145 1.308211 0.000000
-4.703159 1.209642 0.000000
4.853463 0.881759 0.000000
2.075707 0.957315 0.000000
1.712332 1.133300 0.000000
1.366611 1.228238 0.000000
1.133626 1.299514 0.000000
0.968112 1.354412 0.000000
0.845960 1.398917 0.000000
0.753898 1.437398 0.000000
0.684531 1.473545 0.000000
0.633176 1.511418 0.000000
0.595525 1.555053 0.000000
0.567405 1.607387 0.000000
0.545988 1.670920 0.000000
0.528502 1.751787 0.000000
0.498555 1.848204 0.000000
0.481476 1.928710 0.000000
0.616705 2.039815 0.000000
0.000486 2.061489 0.000000
0.235226 1.779091 0.000000
-0.213426 1.775248 0.000000
0.228277 1.768669 0.000000
-0.230006 1.784942 0.000000
0.044345 2.101741 0.000000
-0.581684 2.170619 0.000000
-0.513086 1.960795 0.000000
-0.503958 1.858660 0.000000
-0.518314 1.768466 0.000000
-0.525426 1.707797 0.000000
-0.709903 1.414018 0.000000
-0.617721 1.557333 0.000000
-0.636108 1.509587 0.000000
-0.687199 1.469829 0.000000
-0.756635 1.433316 0.000000
-0.848217 1.395269 0.000000
-0.969524 1.351120 0.000000
-1.133679 1.296152 0.000000
-1.364166 1.223511 0.000000
-1.705389 1.122922 0.000000
-2.062503 0.931288 0.000000
-4.864306 0.852243 0.000000
4.997901 0.506201 0.000000
2.160593 0.538708 0.000000
1.800855 0.643467 0.000000
1.435086 0.703035 0.000000
1.186833 0.750223 0.000000
1.011368 0.789145 0.000000
0.883221 0.823087 0.000000
0.787954 0.854007 0.000000
0.718896 0.884135 0.000000
0.672907 0.918969 0.000000
0.644924 0.965385 0.000000
0.628805 1.027546 0.000000
0.622684 1.107049 0.000000
0.641378 1.219910 0.000000
0.566096 1.514194 0.000000
0.569950 1.473920 0.000000
0.857246 1.737177 0.000000
0.017841 1.915482 0.000000
0.122108 2.276978 0.000000
0.594021 3.081276 0.000000
-0.564567 3.195786 0.000000
-0.067027 2.255377 0.000000
0.115870 2.009610 0.000000
1.762712 3.109820 0.000000
-0.638278 1.483488 0.000000
-0.578332 1.460292 0.000000
-0.622899 1.260422 0.000000
-0.722559 0.985982 0.000000
-0.652160 1.023485 0.000000
-0.650841 0.963067 0.000000
-0.677007 0.916248 0.000000
-0.721946 0.880859 0.000000
-0.790419 0.850602 0.000000
-0.885144 0.819825 0.000000
-1.012660 0.785988 0.000000
-1.187330 0.746828 0.000000
-1.434620 0.698623 0.000000
-1.799786 0.636747 0.000000
-2.159972 0.529117 0.000000
-5.002528 0.496432 0.000000
5.059785 0.181715 0.000000
2.207245 0.191971 0.000000
1.846534 0.230095 0.000000
1.472526 0.253895 0.000000
1.218575 0.275380 0.000000
1.040359 0.296884 0.000000
0.911124 0.320221 0.000000
0.813875 0.343401 0.000000
0.745350 0.363244 0.000000
0.710720 0.390576 0.000000
0.702038 0.441150 0.000000
0.707457 0.523505 0.000000
0.723122 0.630341 0.000000
0.782031 0.762084 0.000000
1.921477 0.184265 0.000000
0.672992 1.123764 0.000000
2.098298 1.614811 0.000000
-3.620846 2.091688 0.000000
-3.841881 2.657202 0.000000
3.793441 -0.146119 0.000000
1.748980 1.766047 0.000000
3.742812 2.302881 0.000000
-5.195081 -3.428728 0.000000
-2.923922 1.983408 0.000000
-0.734634 1.107043 0.000000
-2.953761 -1.135879 0.000000
-0.873952 0.676128 0.000000
-0.747954 0.620753 0.000000
-0.716767 0.519326 0.000000
-0.708088 0.437949 0.000000
-0.714908 0.387470 0.000000
-0.748477 0.360059 0.000000
-0.816235 0.340157 0.000000
-0.912869 0.317096 0.000000
-1.041637 0.293862 0.000000
-1.219457 0.272218 0.000000
-1.473145 0.250226 0.000000
-1.847308 0.225609 0.000000
-2.208482 0.186805 0.000000
-5.063011 0.176617 0.000000
5.062237 -0.128144 0.000000
2.211802 -0.136023 0.000000
1.851541 -0.161252 0.000000
1.479273 -0.173283 0.000000
1.228530 -0.178291 0.000000
1.055976 -0.174301 0.000000
0.934432 -0.156469 0.000000
0.833012 -0.130790 0.000000
0.751352 -0.135153 0.000000
0.743882 -0.129402 0.000000
0.774304 -0.073363 0.000000
0.831332 0.077581 0.000000
0.870877 0.246601 0.000000
1.353747 0.728043 0.000000
1.064503 0.332915 0.000000
1.054188 1.404402 0.000000
2.329576 0.811996 0.000000
-1.427544 0.868604 0.000000
1.497345 1.202674 0.000000
6.439511 -0.231983 0.000000
-4.796952 3.027373 0.000000
-5.218004 0.433756 0.000000
0.137170 0.556385 0.000000
-3.099340 0.891792 0.000000
-0.929224 0.903492 0.000000
-1.152328 0.223907 0.000000
-1.421590 0.727030 0.000000
-0.883252 0.239115 0.000000
-0.839556 0.073562 0.000000
-0.779831 -0.077014 0.000000
-0.747858 -0.132635 0.000000
-0.754643 -0.138447 0.000000
-0.835291 -0.134461 0.000000
-0.935864 -0.159730 0.000000
-1.057158 -0.177198 0.000000
-1.229589 -0.181152 0.000000
-1.480336 -0.176318 0.000000
-1.852846 -0.164544 0.000000
-2.213226 -0.139562 0.000000
-5.065336 -0.131678 0.000000
5.003761 -0.455908 0.000000
2.175222 -0.485213 0.000000
1.815243 -0.575773 0.000000
1.454490 -0.624945 0.000000
1.215664 -0.657362 0.000000
1.058437 -0.672307 0.000000
0.972158 -0.650468 0.000000
0.889683 -0.496166 0.000000
0.660361 -0.649889 0.000000
0.775883 -0.701716 0.000000
0.859777 -0.644941 0.000000
3.140619 -4.531465 0.000000
1.229563 0.051998 0.000000
1.673694 -6.405343 0.000000
0.766425 0.461434 0.000000
8.224628 -8.097977 0.000000
1.100624 -0.037988 0.000000
0.006587 -7.240815 0.000000
-0.392009 0.501511 0.000000
5.745034 -2.076716 0.000000
-3.640178 -1.132134 0.000000
-19.559719 -20.841642 0.000000
-0.590919 -5.826393 0.000000
0.525686 1.344737 0.000000
-0.570464 -2.405286 0.000000
-0.798829 0.503909 0.000000
-1.588771 -6.494584 0.000000
-1.224332 0.058176 0.000000
-3.230072 -3.991936 0.000000
-0.864536 -0.648948 0.000000
-0.779272 -0.704823 0.000000
-0.664856 -0.652983 0.000000
-0.891451 -0.505480 0.000000
-0.972456 -0.654116 0.000000
-1.059370 -0.675029 0.000000
-1.216729 -0.659932 0.000000
-1.455676 -0.627515 0.000000
-1.816665 -0.578382 0.000000
-2.176245 -0.487969 0.000000
-5.007565 -0.458898 0.000000
4.871154 -0.753516 0.000000
2.084648 -0.834820 0.000000
1.727804 -1.033699 0.000000
1.394493 -1.130742 0.000000
1.176998 -1.194235 0.000000
1.039699 -1.234419 0.000000
1.019910 -1.243339 0.000000
0.042726 -4.074719 0.000000
-0.012142 -1.373015 0.000000
0.872041 -1.438372 0.000000
0.920883 -1.318317 0.000000
1.151396 -1.216889 0.000000
1.248521 -1.422875 0.000000
2.869619 -3.196523 0.000000
0.330590 -2.963323 0.000000
7.899268 -10.585804 0.000000
-10.316043 0.243992 0.000000
0.604474 0.687682 0.000000
-0.634093 -1.008736 0.000000
-1.737447 -1.532055 0.000000
1.885019 -1.772005 0.000000
-2.091343 -0.229220 0.000000
-1.053492 0.798355 0.000000
10.316771 0.147340 0.000000
-15.290266 -13.034498 0.000000
-0.455641 -2.869961 0.000000
-2.892888 -3.172069 0.000000
-1.259546 -1.419916 0.000000
-1.159050 -1.215332 0.000000
-0.924754 -1.322775 0.000000
-0.873723 -1.441026 0.000000
0.010871 -1.368495 0.000000
-0.093784 -4.110452 0.000000
-1.018652 -1.245872 0.000000
-1.040430 -1.236816 0.000000
-1.177993 -1.196542 0.000000
-1.395650 -1.132969 0.000000
-1.729185 -1.035828 0.000000
-2.085238 -0.836525 0.000000
-4.875573 -0.755714 0.000000
4.717570 -1.200889 0.000000
1.822523 -1.295528 0.000000
1.513379 -1.488062 0.000000
1.251138 -1.577596 0.000000
1.078525 -1.646915 0.000000
0.965476 -1.711554 0.000000
0.912732 -1.837545 0.000000
1.001079 -2.975624 0.000000
0.109713 -0.197368 0.000000
1.056967 -1.611641 0.000000
0.945349 -1.524577 0.000000
1.093181 -2.162995 0.000000
1.013371 -2.158018 0.000000
1.314011 -2.253534 0.000000
0.325202 -1.722986 0.000000
9.187032 -8.103404 0.000000
5.996438 -0.365548 0.000000
-8.297009 -41.005562 0.000000
2.367350 -2.035693 0.000000
19.746657 -15.533660 0.000000
2.211742 -4.315694 0.000000
-7.489777 -3.040010 0.000000
-8.207382 -11.001784 0.000000
-0.053261 -2.128635 0.000000
-1.337832 -2.269443 0.000000
-1.024040 -2.159522 0.000000
-1.099647 -2.136508 0.000000
-0.947367 -1.529297 0.000000
-1.057108 -1.614621 0.000000
-0.081102 -0.163752 0.000000
-1.010728 -2.961988 0.000000
-0.913056 -1.838357 0.000000
-0.966161 -1.713751 0.000000
-1.079372 -1.649169 0.000000
-1.252162 -1.579772 0.000000
-1.514640 -1.490099 0.000000
-1.823765 -1.296934 0.000000
-4.721156 -1.201851 0.000000
3.770287 -3.328474 0.000000
1.723263 -4.336106 0.000000
1.482943 -4.544850 0.000000
1.247617 -4.718910 0.000000
1.079600 -4.826579 0.000000
0.962483 -4.898599 0.000000
0.882620 -4.946618 0.000000
0.746302 -4.746634 0.000000
0.647820 -3.956467 0.000000
1.030924 -5.026681 0.000000
0.890333 -5.260649 0.000000
0.957231 -5.468878 0.000000
0.976791 -5.312752 0.000000
1.218155 -5.068723 0.000000
2.239048 -4.550978 0.000000
5.899627 -11.191392 0.000000
27.034522 20.818919 0.000000
-3.159321 3.273882 0.000000
32.230274 -37.842251 0.000000
-32.485576 -37.569277 0.000000
3.671911 3.063084 0.000000
-10.234223 -9.559297 0.000000
-5.222609 -6.369837 0.000000
-2.240622 -4.607490 0.000000
-1.234811 -5.088387 0.000000
-0.985007 -5.322808 0.000000
-0.960988 -5.470324 0.000000
-0.892371 -5.266390 0.000000
-1.031236 -5.033064 0.000000
-0.648343 -3.963371 0.000000
-0.750391 -4.753588 0.000000
-0.883472 -4.948917 0.000000
-0.963195 -4.900634 0.000000
-1.080384 -4.828438 0.000000
-1.248525 -4.720570 0.000000
-1.484014 -4.546355 0.000000
-1.724324 -4.338042 0.000000
-3.772675 -3.329975 0.000000
-4.783733 -0.919869 0.000000
-9.063895 -0.144957 0.000000
1.474456 -13.290442 0.000000
-483.017932 -49.834185 0.000000
-1.456088 -13.261485 0.000000
9.133404 -0.709451 0.000000
4.705102 -0.876196 0.000000
-5.291336 -8.613010 0.000000
2.425011 -6.509103 0.000000
-0.177961 -8.771995 0.000000
-4.353259 -6.439342 0.000000
-0.461265 -8.211272 0.000000
-74.112305 -159.338677 0.000000
-0.269300 -9.347930 0.000000
-2.437923 -6.623612 0.000000
6.676192 -6.871055 0.000000
-1.511500 -3.972837 0.000000
0.028529 -11.506504 0.000000
0.984067 -11.200664 0.000000
7.700582 -15.516964 0.000000
4.152017 -10.490300 0.000000
8.202335 -5.715670 0.000000
0.206173 -11.357627 0.000000
-6.394128 -11.661245 0.000000
-2.465735 -5.304400 0.000000
2.955305 -13.061528 0.000000
7.514364 19.631706 0.000000
0.574055 -12.740635 0.000000
-4.483459 -8.877813 0.000000
-5.799211 -11.197522 0.000000
5.856916 -10.300729 0.000000
-3.823285 -11.466571 0.000000
0.476457 -15.962368 0.000000
8.865536 1.313829 0.000000
-2.132478 -10.133280 0.000000
2.195595 -13.144364 0.000000
5.405809 -4.755569 0.000000
0.610996 -13.692324 0.000000
-0.198398 -13.616221 0.000000
-21.665308 -7.576601 0.000000
5.648072 -12.039930 0.000000
-2.936037 -13.966617 0.000000
-2.682620 -13.275192 0.000000
2.518707 -9.832783 0.000000
2.732436 -15.141139 0.000000
0.515017 -14.479610 0.000000
0.902009 -8.895761 0.000000
-0.674888 -16.214222 0.000000
0.741934 -13.954524 0.000000
0.334612 -15.675751 0.000000
-0.058155 -16.832996 0.000000
-2.505331 -15.759449 0.000000
0.115282 -13.509269 0.000000
-2.683388 -15.224381 0.000000
</DataArray>
<DataArray type="Float32" Name="Masse" format="ascii">
1.000000
1.000000
1.000000
1.000000
1.000000
1.000000
1.000000
1.000000
1.000000
1.000000
1.000000
1.000000
1.000000
1.000000
1.000000
1.000000
1.000000
1.000000
1.000000
1.000000
1.000000
1.000000
1.000000
1.000000
1.000000
1.000000
1.000000
1.000000
1.000000
1.000000
1.000000
1.000000
1.000000
1.000000
1.000000
1.000000
1.000000
1.000000
1.000000
1.000000
1.000000
1.000000
1.000000
1.000000
1.000000
1.000000
1.000000
1.000000
1.000000
1.000000
1.000000
1.000000
1.000000
1.000000
1.000000
1.000000
1.000000
1.000000
1.000000
1.000000
1.000000
1.000000
1.000000
1.000000
1.000000
1.000000
1.000000
1.000000
1.000000
1.000000
1.000000
1.000000
1.000000
1.000000
1.000000
1.000000
1.000000
1.000000
1.000000
1.000000
1.000000
1.000000
1.000000
1.000000
1.000000
1.000000
1.000000
1.000000
1.000000
1.000000
1.000000
1.000000
1.000000
1.000000
1.000000
1.000000
1.000000
1.000000
1.000000
1.000000
1.000000
1.000000
1.000000
1.000000
1.000000
1.000000
1.000000
1.000000
1.000000
1.000000
1.000000
1.000000
1.000000
1.000000
1.000000
1.000000
1.000000
1.000000
1.000000
1.000000
1.000000
1.000000
1.000000
1.000000
1.000000
1.000000
1.000000
1.000000
1.000000
1.000000
1.000000
1.000000
1.000000
1.000000
1.000000
1.000000
1.000000
1.000000
1.000000
1.000000
1.000000
1.000000
1.000000
1.000000
1.000000
1.000000
1.000000
1.000000
1.000000
1.000000
1.000000
1.000000
1.000000
1.000000
1.000000
1.000000
1.000000
1.000000
1.000000
1.000000
1.000000
1.000000
1.000000
1.000000
1.000000
1.000000
1.000000
1.000000
1.000000
1.000000
1.000000
1.000000
1.000000
1.000000
1.000000
1.000000
1.000000
1.000000
1.000000
1.000000
1.000000
1.000000
1.000000
1.000000
1.000000
1.000000
1.000000
1.000000
1.000000
1.000000
1.000000
1.000000
1.000000
1.000000
1.000000
1.000000
1.000000
1.000000
1.000000
1.000000
1.000000
1.000000
1.000000
1.000000
1.000000
1.000000
1.000000
1.000000
1.000000
1.000000
1.000000
1.000000
1.000000
1.000000
1.000000
1.000000
1.000000
1.000000
1.000000
1.000000
1.000000
1.000000
1.000000
1.000000
1.000000
1.000000
1.000000
1.000000
1.000000
1.000000
1.000000
1.000000
1.000000
1.000000
1.000000
1.000000
1.000000
1.000000
1.000000
1.000000
1.000000
1.000000
1.000000
1.000000
1.000000
1.000000
1.000000
1.000000
1.000000
1.000000
1.000000
1.000000
1.000000
1.000000
1.000000
1.000000
1.000000
1.000000
1.000000
1.000000
1.000000
1.000000
1.000000
1.000000
1.000000
1.000000
1.000000
1.000000
1.000000
1.000000
1.000000
1.000000
1.000000
1.000000
1.000000
1.000000
1.000000
1.000000
1.000000
1.000000
1.000000
1.000000
1.000000
1.000000
1.000000
1.000000
1.000000
1.000000
1.000000
1.000000
1.000000
1.000000
1.000000
1.000000
1.000000
1.000000
1.000000
1.000000
1.000000
1.000000
1.000000
1.000000
1.000000
1.000000
1.000000
1.000000
1.000000
1.000000
1.000000
1.000000
1.000000
1.000000
1.000000
1.000000
1.000000
1.000000
1.000000
1.000000
1.000000
1.000000
1.000000
1.000000
1.000000
1.000000
1.000000
1.000000
1.000000
1.000000
1.000000
1.000000
1.000000
1.000000
1.000000
1.000000
1.000000
1.000000
1.000000
1.000000
1.000000
1.000000
1.000000
1.000000
1.000000
1.000000
1.000000
1.000000
1.000000
1.000000
1.000000
1.000000
1.000000
1.000000
1.000000
1.000000
1.000000
1.000000
1.000000
1.000000
1.000000
1.000000
1.000000
1.000000
1.000000
1.000000
1.000000
1.000000
1.000000
1.000000
1.000000
1.000000
1.000000
1.000000
1.000000
1.000000
1.000000
1.000000
1.000000
1.000000
1.000000
1.000000
1.000000
1.000000
1.000000
1.000000
1.000000
1.000000
1.000000
1.000000
1.000000
1.000000
1.000000
1.000000
1.000000
1.000000
1.000000
1.000000
1.000000
1.000000
1.000000
1.000000
1.000000
1.000000
1.000000
1.000000
1.000000
1.000000
1.000000
1.000000
1.000000
1.000000
1.000000
1.000000
1.000000
1.000000
1.000000
1.000000
1.000000
1.000000
1.000000
1.000000
1.000000
1.000000
1.000000
1.000000
1.000000
1.000000
1.000000
1.000000
1.000000
1.000000
1.000000
1.000000
1.000000
1.000000
1.000000
1.000000
1.000000
1.000000
1.000000
1.000000
1.000000
1.000000
1.000000
1.000000
1.000000
1.000000
1.000000
1.000000
1.000000
1.000000
</DataArray>