<VTKFile type="UnstructuredGrid" version="0.1" byte_order="LittleEndian">
<UnstructuredGrid>
<Piece NumberOfPoints="445" NumberOfCells="0">
<Points>
<DataArray name="Position" type="Float32" NumberOfComponents="3"  format="ascii">
-20.983635 -4.462909 0.000000
-19.763443 -3.200089 0.000000
-19.249389 -3.497503 0.000000
-18.313299 -3.442995 0.000000
-17.303906 -3.382073 0.000000
-15.840228 -3.522808 0.000000
-12.803697 -3.039262 0.000000
-11.861016 -4.425308 0.000000
-7.668945 -3.622502 0.000000
-6.816906 -2.665082 0.000000
-7.979057 -1.160516 0.000000
-3.879753 -3.988782 0.000000
-4.616004 -1.130991 0.000000
-5.955776 -4.361334 0.000000
-3.018050 -1.099652 0.000000
-3.387631 -4.728673 0.000000
-9.942235 0.573285 0.000000
-3.230957 -3.031868 0.000000
-2.313548 -2.960358 0.000000
-1.297590 2.690983 0.000000
1.618164 -0.824449 0.000000
1.567272 -2.905942 0.000000
2.120107 -3.024553 0.000000
1.882623 -4.782498 0.000000
3.065971 -1.656366 0.000000
3.589818 -1.568437 0.000000
6.522242 -2.217607 0.000000
6.580251 -2.162270 0.000000
2.410045 -3.637958 0.000000
9.661450 -3.271039 0.000000
14.732720 -9.115389 0.000000
8.668374 -0.072054 0.000000
12.111010 -1.979759 0.000000
11.513736 -3.631050 0.000000
14.954254 -3.156875 0.000000
16.183908 -3.390849 0.000000
17.193217 -3.442689 0.000000
18.132955 -3.500371 0.000000
18.963840 -3.610791 0.000000
19.279858 -3.790322 0.000000
-20.238655 -3.219180 0.000000
-20.243691 -4.057490 0.000000
-19.415040 -3.186648 0.000000
-18.423848 -3.076995 0.000000
-17.402965 -3.016754 0.000000
-16.791967 -2.778654 0.000000
-17.734216 -3.208976 0.000000
-16.497904 -1.763103 0.000000
-18.552663 -2.605000 0.000000
-17.505114 -4.123671 0.000000
-13.774755 -5.051326 0.000000
-15.477059 -1.368856 0.000000
-13.052622 -4.510120 0.000000
-9.290780 -1.519932 0.000000
-10.021957 -4.793835 0.000000
-7.443195 -1.026327 0.000000
1.428119 -6.317162 0.000000
-3.443023 -2.647863 0.000000
-2.223780 -2.634006 0.000000
-0.991210 -8.413419 0.000000
-1.596092 -4.879416 0.000000
0.701396 -2.697484 0.000000
2.331919 -2.636687 0.000000
4.179642 -1.052697 0.000000
5.474438 -4.121658 0.000000
7.179869 -4.297910 0.000000
6.577400 -3.663162 0.000000
8.616568 -3.748267 0.000000
15.002914 -2.494584 0.000000
9.855423 -2.826300 0.000000
6.986326 2.911980 0.000000
15.591629 -5.570618 0.000000
14.021518 -4.228176 0.000000
16.768308 -2.686723 0.000000
15.437015 -3.133394 0.000000
16.283952 -3.008544 0.000000
17.303213 -3.077528 0.000000
18.300497 -3.188264 0.000000
19.293097 -3.492863 0.000000
18.830754 -3.588777 0.000000
-20.073212 -2.750578 0.000000
-19.811331 -2.904783 0.000000
-19.196181 -2.698644 0.000000
-18.273209 -2.629830 0.000000
-17.290357 -2.607749 0.000000
-16.271259 -2.571307 0.000000
-15.239040 -2.566929 0.000000
-14.166635 -2.494770 0.000000
-13.073436 -2.479887 0.000000
-11.986374 -2.473083 0.000000
-10.884816 -2.447129 0.000000
-9.846710 -2.335386 0.000000
-8.668541 -2.374349 0.000000
-7.554578 -2.351288 0.000000
-6.244003 -2.648693 0.000000
-5.374459 -2.292518 0.000000
-4.123820 -2.191391 0.000000
-3.337768 -2.176090 0.000000
-2.091676 -2.327005 0.000000
-1.146805 -2.271453 0.000000
0.333522 -2.335520 0.000000
0.949433 -2.330766 0.000000
2.223625 -2.154651 0.000000
3.112775 -2.164807 0.000000
4.232191 -2.251122 0.000000
5.350720 -2.300999 0.000000
6.371367 -2.322094 0.000000
7.560120 -2.372396 0.000000
8.600196 -2.497221 0.000000
9.761302 -2.450550 0.000000
10.554628 -2.998482 0.000000
11.953351 -2.488435 0.000000
13.021439 -2.519594 0.000000
14.097009 -2.537799 0.000000
15.148672 -2.572966 0.000000
16.169035 -2.608437 0.000000
17.154951 -2.644564 0.000000
18.076127 -2.702460 0.000000
18.689472 -2.914630 0.000000
18.952317 -2.757001 0.000000
-20.036216 -1.889964 0.000000
-19.713481 -1.982897 0.000000
-19.142434 -1.865014 0.000000
-18.235901 -1.829101 0.000000
-17.260424 -1.802042 0.000000
-16.243341 -1.783575 0.000000
-15.198649 -1.758561 0.000000
-14.135533 -1.743556 0.000000
-13.055068 -1.721078 0.000000
-11.962494 -1.700453 0.000000
-10.860259 -1.678363 0.000000
-9.752374 -1.647326 0.000000
-8.678443 -1.571281 0.000000
-7.509957 -1.565421 0.000000
-6.480368 -1.477535 0.000000
-5.321594 -1.458114 0.000000
-3.952640 -1.373038 0.000000
-4.135413 -2.018199 0.000000
-2.111785 -1.136766 0.000000
-1.836335 -0.038588 0.000000
0.917823 0.024239 0.000000
1.176766 -1.187178 0.000000
2.328912 -1.266493 0.000000
3.390248 -1.090651 0.000000
4.170235 -1.448740 0.000000
5.325588 -1.467743 0.000000
6.367866 -1.565890 0.000000
7.472344 -1.665086 0.000000
8.630219 -1.645000 0.000000
9.755692 -1.665061 0.000000
10.828952 -1.701685 0.000000
11.929448 -1.722066 0.000000
13.007863 -1.740169 0.000000
14.074055 -1.757528 0.000000
15.120483 -1.779088 0.000000
16.137928 -1.802842 0.000000
17.113530 -1.830837 0.000000
18.020785 -1.867680 0.000000
18.590370 -1.985162 0.000000
18.913695 -1.890269 0.000000
-21.315260 -1.768704 0.000000
-18.367802 -0.257520 0.000000
-19.114466 -0.979515 0.000000
-18.214364 -0.969673 0.000000
-17.242246 -0.957574 0.000000
-16.226319 -0.945382 0.000000
-15.181834 -0.931939 0.000000
-14.118248 -0.917913 0.000000
-13.038407 -0.904795 0.000000
-11.941527 -0.888347 0.000000
-10.832175 -0.861994 0.000000
-9.716589 -0.823835 0.000000
-8.598863 -0.778338 0.000000
-7.454213 -0.715102 0.000000
-6.110718 -0.789753 0.000000
-5.281356 -0.569091 0.000000
-3.654389 -0.439426 0.000000
-3.399529 -0.553817 0.000000
-3.209185 -0.303571 0.000000
-0.304720 -0.601630 0.000000
0.048600 -0.321397 0.000000
2.044006 -0.297834 0.000000
1.399935 -1.113489 0.000000
2.153147 -0.701864 0.000000
4.138817 -0.564710 0.000000
4.771838 -1.037335 0.000000
6.287091 -0.755170 0.000000
7.466035 -0.782707 0.000000
8.603602 -0.823014 0.000000
9.703156 -0.867654 0.000000
10.810699 -0.889779 0.000000
11.912338 -0.905779 0.000000
12.993015 -0.918493 0.000000
14.057540 -0.931955 0.000000
15.102815 -0.945605 0.000000
16.118971 -0.958492 0.000000
17.090711 -0.971651 0.000000
17.990917 -0.986270 0.000000
19.227387 -1.732897 0.000000
18.205326 -0.302214 0.000000
-23.588993 -2.743659 0.000000
-16.098779 2.592982 0.000000
-19.106761 -0.091518 0.000000
-18.210704 -0.098054 0.000000
-17.236640 -0.100759 0.000000
-16.217782 -0.099049 0.000000
-15.169303 -0.090503 0.000000
-14.106659 -0.077423 0.000000
-13.031228 -0.075841 0.000000
-11.922508 -0.068573 0.000000
-10.794653 -0.038367 0.000000
-9.659722 0.048965 0.000000
-8.537842 0.091371 0.000000
-7.268221 0.188343 0.000000
-6.238633 0.197344 0.000000
-2.865954 8.118502 0.000000
-3.290314 1.312075 0.000000
-3.880238 -0.586251 0.000000
-1.555913 -0.409923 0.000000
-0.724511 0.201565 0.000000
-0.014031 0.493012 0.000000
0.456762 0.186893 0.000000
2.191146 0.415549 0.000000
2.226270 0.288534 0.000000
3.990309 0.386005 0.000000
5.072497 0.152692 0.000000
6.126964 0.180795 0.000000
7.409968 0.089312 0.000000
8.556299 0.043188 0.000000
9.672888 -0.038801 0.000000
10.792707 -0.069868 0.000000
11.905193 -0.076892 0.000000
12.981735 -0.078517 0.000000
14.045188 -0.091295 0.000000
15.094048 -0.099755 0.000000
16.112919 -0.101708 0.000000
17.086117 -0.098942 0.000000
17.984615 -0.092794 0.000000
13.256830 5.269270 0.000000
-20.025650 0.806387 0.000000
-19.705160 0.899200 0.000000
-19.128155 0.783954 0.000000
-18.226443 0.762710 0.000000
-17.244480 0.741433 0.000000
-16.217653 0.731717 0.000000
-15.153370 0.738786 0.000000
-14.082199 0.837431 0.000000
-13.061439 0.741373 0.000000
-11.905189 0.725978 0.000000
-10.725247 0.772411 0.000000
-9.590180 0.141608 0.000000
-8.545198 0.640695 0.000000
-7.059591 -0.827327 0.000000
-6.527230 1.123977 0.000000
-2.402620 -1.414208 0.000000
-3.612467 1.144409 0.000000
-3.999464 -1.262347 0.000000
-2.444098 1.000170 0.000000
0.970443 0.385710 0.000000
-1.507671 0.946309 0.000000
-2.837855 -2.930542 0.000000
2.578207 -0.947710 0.000000
2.799651 1.466566 0.000000
3.694461 0.209518 0.000000
5.392896 1.100049 0.000000
5.956566 -0.856060 0.000000
7.451363 0.624913 0.000000
8.463150 0.187398 0.000000
9.612260 0.807162 0.000000
10.776019 0.724686 0.000000
11.935123 0.740296 0.000000
12.955978 0.827396 0.000000
14.029749 0.737593 0.000000
15.093983 0.730920 0.000000
16.120406 0.740414 0.000000
17.101030 0.759839 0.000000
17.992135 0.771424 0.000000
18.580203 0.898752 0.000000
18.902667 0.804582 0.000000
-20.059978 1.692266 0.000000
-19.806488 1.854298 0.000000
-19.182350 1.630730 0.000000
-18.258130 1.584639 0.000000
-17.269244 1.550602 0.000000
-16.229454 1.524212 0.000000
-15.138132 1.517057 0.000000
-14.103704 0.914178 0.000000
-13.311809 1.494919 0.000000
-11.868352 1.440500 0.000000
-10.728136 1.478143 0.000000
-9.531168 1.510266 0.000000
-8.332929 1.475854 0.000000
-6.399473 0.858555 0.000000
-6.247740 1.064293 0.000000
-2.774147 -1.251903 0.000000
-11.460585 2.288459 0.000000
-3.433349 2.392033 0.000000
-2.487460 1.907525 0.000000
-1.851948 1.646487 0.000000
0.532801 6.394464 0.000000
0.650035 2.184630 0.000000
2.151702 2.053919 0.000000
10.344660 2.262413 0.000000
-0.400628 -2.200966 0.000000
5.101423 1.140718 0.000000
5.276750 0.870458 0.000000
7.201829 1.471506 0.000000
8.456646 1.518011 0.000000
9.623110 1.485685 0.000000
10.739293 1.438180 0.000000
12.186109 1.495805 0.000000
12.966145 0.936255 0.000000
14.016487 1.516216 0.000000
15.109018 1.522998 0.000000
16.143095 1.546847 0.000000
17.110478 1.555338 0.000000
18.059018 1.636032 0.000000
18.681538 1.854921 0.000000
18.936621 1.693410 0.000000
-19.943287 2.493572 0.000000
-20.399837 2.394690 0.000000
-19.393843 2.092617 0.000000
-18.391462 1.988023 0.000000
-17.353578 1.982796 0.000000
-16.329744 2.049120 0.000000
-15.185527 2.046096 0.000000
-14.124821 1.888560 0.000000
-14.059840 1.822946 0.000000
-11.948467 1.841706 0.000000
-6.082140 4.445410 0.000000
-5.411598 1.710300 0.000000
-1.991102 0.930026 0.000000
-1.473232 1.260976 0.000000
-5.158365 -6.482061 0.000000
0.065748 2.485272 0.000000
6.418509 -1.453047 0.000000
2.530075 2.282651 0.000000
-0.149261 0.488690 0.000000
0.950075 0.375110 0.000000
4.354151 1.600595 0.000000
-3.647893 0.960253 0.000000
9.249959 -5.550708 0.000000
8.311573 6.260025 0.000000
10.790227 1.977026 0.000000
12.925995 1.820149 0.000000
13.021813 1.853193 0.000000
14.266268 1.771821 0.000000
15.507469 1.634797 0.000000
16.268370 1.918809 0.000000
17.267479 1.987926 0.000000
18.270328 2.092587 0.000000
19.276826 2.399983 0.000000
18.817758 2.488447 0.000000
-20.385625 2.693393 0.000000
-20.056813 2.499545 0.000000
-19.236373 2.409334 0.000000
-18.289827 2.354143 0.000000
-17.286327 2.252203 0.000000
-16.208063 2.112777 0.000000
-15.190639 2.029723 0.000000
-14.137279 1.835740 0.000000
-13.067283 2.229123 0.000000
-11.629119 2.300703 0.000000
-73.127635 -3.464219 0.000000
-6.712087 -18.893508 0.000000
-10.650078 -0.467895 0.000000
-2.409446 -35.696018 0.000000
-5.452166 2.066577 0.000000
-1.048769 -1.467526 0.000000
6.651760 5.528817 0.000000
-4.432250 7.989482 0.000000
20.475627 -26.295892 0.000000
-21.758466 -26.123915 0.000000
3.614473 7.911282 0.000000
-4.374950 -1.823144 0.000000
-0.317920 -3.808831 0.000000
4.339801 2.054744 0.000000
-84.940394 -19.893067 0.000000
17.732935 3.796453 0.000000
7.561137 9.529352 0.000000
10.831059 -2.138227 0.000000
10.534241 2.174005 0.000000
11.942303 2.228618 0.000000
12.993858 1.843018 0.000000
13.860903 2.306169 0.000000
14.779815 2.527369 0.000000
16.133106 2.325378 0.000000
17.165763 2.353832 0.000000
18.112619 2.409123 0.000000
18.933439 2.499402 0.000000
19.261441 2.693113 0.000000
-8.933576 1.165043 0.000000
-10.793185 0.832166 0.000000
-3.406957 -7.284655 0.000000
-395.647322 -36.119666 0.000000
2.292002 -7.273250 0.000000
9.687706 0.749432 0.000000
7.755174 1.194065 0.000000
-7.500607 -2.688468 0.000000
-4.961194 0.536075 0.000000
-3.889507 -2.544798 0.000000
-1.902104 -1.817755 0.000000
-0.097326 -2.212683 0.000000
-43.200916 -91.936962 0.000000
2.438469 -2.608309 0.000000
3.862154 0.293614 0.000000
6.777208 -2.265167 0.000000
-8.035569 -7.938219 0.000000
-3.669915 -2.544745 0.000000
-2.684964 -1.832922 0.000000
4.646002 -4.512311 0.000000
0.193963 -0.965706 0.000000
3.447568 -1.546587 0.000000
2.783729 -2.527550 0.000000
1.964110 -2.496329 0.000000
-5.466759 0.258057 0.000000
-3.365145 -1.818617 0.000000
-1.447284 6.888695 0.000000
-1.977226 -1.609941 0.000000
-2.173487 -1.135983 0.000000
-1.489978 -1.086065 0.000000
1.614096 -0.724486 0.000000
0.839478 -1.490538 0.000000
2.765711 -2.252297 0.000000
6.347221 2.038187 0.000000
-5.624492 0.212427 0.000000
-3.611212 -0.827851 0.000000
-1.252396 1.693004 0.000000
-2.258289 -0.322021 0.000000
-1.188270 -1.121014 0.000000
-6.588805 1.138531 0.000000
5.607450 -4.534165 0.000000
-2.139735 2.553672 0.000000
2.657194 -0.655387 0.000000
4.440910 0.505140 0.000000
-3.997224 -0.575732 0.000000
-3.824364 -0.627317 0.000000
-2.731585 0.747035 0.000000
-2.240950 -1.119188 0.000000
-0.748277 -0.515846 0.000000
0.210076 -1.040419 0.000000
1.242641 -1.011635 0.000000
1.224599 -1.107941 0.000000
2.993701 -0.483160 0.000000
2.885130 -0.518127 0.000000
</DataArray>
</Points>
<PointData Vectors="vector">
<DataArray type="Float32" Name="Velocity" NumberOfComponents="3" format="ascii">
3.456314 2.826832 0.000000
8.194339 7.847246 0.000000
1.988277 2.634226 0.000000
1.657051 2.791639 0.000000
1.460151 3.421850 0.000000
5.842089 0.683996 0.000000
26.668104 5.318182 0.000000
25.034618 -9.840280 0.000000
57.286330 -1.329056 0.000000
53.923894 7.049932 0.000000
32.669648 21.530073 0.000000
62.943172 -5.884304 0.000000
41.392761 28.267310 0.000000
18.440950 -10.312167 0.000000
38.786615 24.522271 0.000000
23.111958 -15.404855 0.000000
-65.423863 44.779940 0.000000
0.371961 4.100013 0.000000
-0.500031 4.053886 0.000000
-2.421978 67.973655 0.000000
19.048559 27.391507 0.000000
5.616470 4.081903 0.000000
-0.257151 4.154006 0.000000
-15.356128 -17.065132 0.000000
-14.324203 18.930523 0.000000
-20.821874 19.441895 0.000000
4.773731 10.275238 0.000000
-11.909827 13.530289 0.000000
-68.027889 -2.603319 0.000000
-1.109769 3.312777 0.000000
43.440096 -64.779910 0.000000
-34.090729 38.286578 0.000000
-10.843280 15.989327 0.000000
-28.449304 -1.028607 0.000000
-4.054256 4.377893 0.000000
-1.431396 3.011043 0.000000
-1.601415 2.803747 0.000000
-1.941136 2.593085 0.000000
-5.551528 4.393538 0.000000
-5.661689 5.256340 0.000000
2.046722 7.028062 0.000000
1.431652 -4.520623 0.000000
1.083957 5.434407 0.000000
1.238665 5.540100 0.000000
1.124106 5.261758 0.000000
-3.933894 8.188758 0.000000
-25.101584 3.652460 0.000000
-22.908752 18.624397 0.000000
-56.059901 6.493268 0.000000
-56.368014 -6.511484 0.000000
-29.021938 -16.470973 0.000000
-57.881226 23.446972 0.000000
-45.219070 -11.111577 0.000000
-17.309892 20.160170 0.000000
-37.573418 -15.375525 0.000000
-22.092090 25.818912 0.000000
66.957828 -35.039803 0.000000
-0.521238 6.852517 0.000000
0.015464 7.094265 0.000000
1.491189 -58.862257 0.000000
-18.129589 -18.006022 0.000000
-5.269897 6.847367 0.000000
0.873806 7.217782 0.000000
9.589350 25.027005 0.000000
12.379448 -8.862537 0.000000
18.880228 -9.933608 0.000000
0.188798 -2.559559 0.000000
10.121694 -3.373671 0.000000
66.769834 10.304952 0.000000
-0.458779 6.318296 0.000000
-45.467637 72.367971 0.000000
37.112918 -21.671248 0.000000
9.225282 -7.367272 0.000000
26.730526 8.629678 0.000000
2.186345 4.851796 0.000000
-1.024371 5.829993 0.000000
-1.197067 5.508477 0.000000
-1.124412 5.375366 0.000000
-0.392174 2.849325 0.000000
-4.010475 1.240689 0.000000
2.940761 1.301453 0.000000
6.012381 0.212011 0.000000
1.898033 1.156306 0.000000
1.877940 3.965595 0.000000
1.325696 1.024302 0.000000
0.966339 1.451222 0.000000
0.474596 1.168108 0.000000
0.657305 2.098933 0.000000
0.796315 2.003177 0.000000
0.689360 1.809078 0.000000
0.788244 1.941618 0.000000
-0.200780 3.481380 0.000000
1.032293 2.452325 0.000000
1.373405 1.923204 0.000000
5.802597 -5.140474 0.000000
0.703829 2.170736 0.000000
2.483468 3.423739 0.000000
-0.528686 3.140991 0.000000
-0.215774 2.475447 0.000000
0.337037 2.660439 0.000000
7.244373 0.874778 0.000000
-0.351044 2.344050 0.000000
0.152795 3.242228 0.000000
-1.069872 3.329959 0.000000
-0.809552 2.998264 0.000000
-0.743999 2.398376 0.000000
-5.479297 5.297363 0.000000
-0.951912 2.128284 0.000000
-0.809037 1.855661 0.000000
-0.658044 1.746521 0.000000
-5.503185 -6.068858 0.000000
-0.624397 1.952064 0.000000
-1.028751 1.644410 0.000000
-0.877539 1.407163 0.000000
-1.071152 1.396592 0.000000
-1.226693 1.045773 0.000000
-1.602993 1.250595 0.000000
-1.874717 1.155757 0.000000
-5.976719 0.332969 0.000000
-2.910619 1.353927 0.000000
3.029561 0.713960 0.000000
6.024403 0.197572 0.000000
2.060973 0.640480 0.000000
1.690382 0.741996 0.000000
1.398644 0.782352 0.000000
0.954774 0.453733 0.000000
1.002533 1.019652 0.000000
0.789920 0.801887 0.000000
0.797583 1.025933 0.000000
0.795739 1.104679 0.000000
0.837753 1.135259 0.000000
0.935716 1.187662 0.000000
-0.559330 3.218720 0.000000
1.178348 1.417087 0.000000
0.331193 1.611552 0.000000
1.144114 1.442619 0.000000
3.477496 1.829940 0.000000
-9.271674 -5.885379 0.000000
-0.415387 3.854303 0.000000
1.402853 3.420671 0.000000
0.340379 3.582253 0.000000
6.035023 0.870924 0.000000
1.336372 2.631613 0.000000
0.111472 2.999932 0.000000
-1.658317 1.836778 0.000000
-0.746965 1.872908 0.000000
-1.475103 1.261030 0.000000
-1.060868 1.084655 0.000000
-0.698261 1.297889 0.000000
-0.460096 1.410821 0.000000
-1.289365 1.051020 0.000000
-0.797543 0.979836 0.000000
-0.957886 0.991082 0.000000
-1.012997 0.966355 0.000000
-1.150437 0.878704 0.000000
-1.373528 0.802183 0.000000
-1.677252 0.750727 0.000000
-2.022824 0.645019 0.000000
-5.974746 0.258910 0.000000
-2.942088 0.876796 0.000000
-16.481272 -10.700929 0.000000
25.642330 10.974041 0.000000
2.223500 0.379973 0.000000
1.706456 0.300151 0.000000
1.417126 0.285974 0.000000
1.200040 0.297532 0.000000
1.034875 0.323797 0.000000
0.911596 0.391043 0.000000
0.845411 0.424582 0.000000
0.851094 0.460691 0.000000
0.910669 0.561754 0.000000
0.930982 0.629034 0.000000
0.968838 0.646022 0.000000
1.425794 0.715395 0.000000
2.191183 0.128060 0.000000
0.996507 1.115743 0.000000
4.385189 1.374391 0.000000
1.486143 -0.062329 0.000000
-4.844995 1.997423 0.000000
3.630191 1.060930 0.000000
-2.151358 1.463817 0.000000
3.338286 2.402234 0.000000
-6.923160 -1.204620 0.000000
-11.066806 -7.365494 0.000000
-1.169119 1.087041 0.000000
-3.295776 -1.093776 0.000000
-1.742095 0.647604 0.000000
-0.977441 0.662252 0.000000
-0.663597 0.693400 0.000000
-1.015753 0.405481 0.000000
-1.040790 0.414471 0.000000
-0.899296 0.421357 0.000000
-0.961268 0.410165 0.000000
-1.062915 0.382034 0.000000
-1.206313 0.337807 0.000000
-1.419744 0.300105 0.000000
-1.725811 0.269026 0.000000
-2.175868 0.257630 0.000000
2.094193 -9.728879 0.000000
-11.549582 9.766250 0.000000
-46.468009 -36.421896 0.000000
55.304351 35.885967 0.000000
2.347468 -0.230364 0.000000
1.631903 -0.270798 0.000000
1.417522 -0.213859 0.000000
1.220124 -0.212775 0.000000
1.084857 -0.174841 0.000000
0.944337 -0.111334 0.000000
0.827231 -0.162509 0.000000
0.898991 -0.176796 0.000000
1.116909 -0.085755 0.000000
1.462741 1.264137 0.000000
0.942586 0.214117 0.000000
2.133924 0.075883 0.000000
1.427703 0.297148 0.000000
19.787244 61.978866 0.000000
7.170837 19.693158 0.000000
-4.934456 -22.822213 0.000000
35.413836 -70.978203 0.000000
-0.873960 -1.234434 0.000000
4.153277 -3.419559 0.000000
-3.703170 -1.180695 0.000000
-4.205250 2.491243 0.000000
-0.650895 -3.580933 0.000000
-3.225362 0.733379 0.000000
-1.576997 0.080265 0.000000
-2.214537 0.057332 0.000000
-0.982331 0.282132 0.000000
-0.893037 0.799997 0.000000
-0.991514 -0.067196 0.000000
-1.008593 -0.204661 0.000000
-0.873295 -0.163517 0.000000
-0.978255 -0.103661 0.000000
-1.106745 -0.157609 0.000000
-1.233994 -0.195501 0.000000
-1.434787 -0.203644 0.000000
-1.735366 -0.195212 0.000000
-2.191802 -0.251096 0.000000
-78.397431 72.282146 0.000000
3.124402 -0.649315 0.000000
6.063380 -0.115593 0.000000
2.169158 -0.681802 0.000000
1.640887 -0.631844 0.000000
1.391550 -0.732521 0.000000
1.222145 -0.764540 0.000000
1.181560 -0.712637 0.000000
0.898470 1.520605 0.000000
0.591345 -0.806410 0.000000
0.948961 -0.878863 0.000000
1.835648 1.283280 0.000000
0.479459 -5.769365 0.000000
-0.502348 -3.252169 0.000000
1.219689 -6.441855 0.000000
-1.494062 -1.252726 0.000000
8.737616 -5.757651 0.000000
1.246839 -1.664858 0.000000
-4.624831 -8.198554 0.000000
-1.679228 -2.694744 0.000000
2.573545 0.164305 0.000000
-5.137327 -2.651579 0.000000
-18.192512 -21.139446 0.000000
-0.249747 -5.961254 0.000000
0.616331 0.687787 0.000000
-0.342614 -2.921648 0.000000
1.053405 -3.528317 0.000000
-1.133130 -6.644906 0.000000
0.779466 -3.320805 0.000000
-0.358409 -5.284765 0.000000
0.643888 3.608009 0.000000
-1.027637 -0.894392 0.000000
-0.629643 -0.803927 0.000000
-1.105519 1.009170 0.000000
-1.197552 -0.703883 0.000000
-1.235135 -0.751873 0.000000
-1.417500 -0.728112 0.000000
-1.685870 -0.671751 0.000000
-2.358287 -0.855276 0.000000
-6.073236 -0.106749 0.000000
-3.113356 -0.660428 0.000000
2.920006 -1.227059 0.000000
6.005429 -0.145156 0.000000
1.922810 -1.102020 0.000000
1.606620 -1.147521 0.000000
1.242270 -1.071500 0.000000
1.167917 -1.259319 0.000000
1.232095 -1.266452 0.000000
0.210319 -5.772619 0.000000
-0.333510 -1.850339 0.000000
1.048731 -1.669091 0.000000
1.063142 -1.964577 0.000000
1.414143 -1.976858 0.000000
1.084474 -2.321798 0.000000
4.876178 -2.220404 0.000000
1.878831 -1.715741 0.000000
7.502378 -11.538964 0.000000
-10.517600 -0.557970 0.000000
0.878369 -0.140199 0.000000
-0.427940 -2.823585 0.000000
-1.756136 -2.758739 0.000000
0.374265 33.646742 0.000000
-2.364831 -1.432471 0.000000
-1.990579 -4.954867 0.000000
10.533155 -0.696519 0.000000
-14.568968 -13.588443 0.000000
-1.941586 -1.242593 0.000000
-4.683822 -2.242468 0.000000
-1.146426 -2.332548 0.000000
-0.890027 -1.841941 0.000000
-0.840256 -1.854505 0.000000
-1.141302 -1.724658 0.000000
0.313574 -1.838390 0.000000
-0.093684 -5.231056 0.000000
-1.161605 -1.242314 0.000000
-1.039863 -1.296474 0.000000
-1.343338 -1.165720 0.000000
-2.084787 -1.655651 0.000000
-1.921774 -1.026180 0.000000
-6.009582 -0.125925 0.000000
-2.926977 -1.198596 0.000000
3.681015 -1.142876 0.000000
0.391917 -2.839077 0.000000
1.192829 -5.361297 0.000000
1.249643 -5.510406 0.000000
1.364862 -4.765833 0.000000
2.235187 -3.877394 0.000000
-1.856139 -6.027357 0.000000
5.141633 0.540561 0.000000
0.082562 -2.256488 0.000000
0.079323 -6.189034 0.000000
24.810562 20.860260 0.000000
0.631022 -3.066789 0.000000
8.996830 -10.299675 0.000000
6.246496 0.091450 0.000000
-9.344657 -39.593761 0.000000
2.440804 -3.219368 0.000000
20.047390 -14.829516 0.000000
2.925919 -1.105254 0.000000
-9.344448 0.010228 0.000000
-5.235775 -18.347812 0.000000
-0.134293 -3.598446 0.000000
-144.763502 47.308932 0.000000
6.451113 -75.154515 0.000000
-12.599634 33.776763 0.000000
1.454692 -6.535193 0.000000
-0.994142 -2.405551 0.000000
-1.743752 3.160714 0.000000
0.817069 -7.142449 0.000000
2.620482 -8.965101 0.000000
-0.794825 -5.764216 0.000000
-1.263584 -5.480245 0.000000
-1.198717 -5.349724 0.000000
-0.394392 -2.764298 0.000000
-3.781345 -1.151135 0.000000
5.664680 -5.215339 0.000000
6.004365 -4.524335 0.000000
1.947526 -2.572346 0.000000
1.627855 -2.779837 0.000000
1.224782 -3.844667 0.000000
-0.146513 -4.626898 0.000000
3.953050 -2.908101 0.000000
-3.195755 -8.883983 0.000000
0.590747 -4.974565 0.000000
2.684836 -2.508247 0.000000
-562.515203 -53.835167 0.000000
27.896169 -201.457496 0.000000
-22.498408 -29.963718 0.000000
60.730356 -479.384675 0.000000
2.547162 -6.128863 0.000000
4.894415 -9.672531 0.000000
26.848502 19.884334 0.000000
-3.094239 2.868309 0.000000
32.194611 -37.773752 0.000000
-32.449393 -37.500631 0.000000
3.630120 2.666258 0.000000
-8.024441 -5.845451 0.000000
-11.139273 -40.424968 0.000000
-2.395120 -6.075321 0.000000
-1145.386721 -279.997862 0.000000
107.339817 14.099794 0.000000
-9.219494 66.490180 0.000000
10.454143 -41.683977 0.000000
-4.231113 -1.900269 0.000000
-0.620775 -4.939190 0.000000
0.585060 -11.545236 0.000000
-3.053505 -1.720663 0.000000
-4.963367 0.442676 0.000000
-1.547084 -2.523018 0.000000
-1.644988 -2.757928 0.000000
-1.957625 -2.557720 0.000000
-5.926649 -4.553229 0.000000
-5.673907 -5.216328 0.000000
-2.986754 1.628701 0.000000
-7.156798 -2.477781 0.000000
1.525456 -12.615217 0.000000
-483.017410 -49.834139 0.000000
-1.511123 -12.585927 0.000000
5.000713 -5.030648 0.000000
2.577370 1.825825 0.000000
-5.225069 -8.212286 0.000000
2.865825 -8.657858 0.000000
-1.130845 -9.803102 0.000000
-5.781079 -4.086748 0.000000
-0.189473 -6.677716 0.000000
-74.108737 -159.330593 0.000000
-1.223597 -7.676064 0.000000
-1.722029 -10.929170 0.000000
5.875150 -7.177675 0.000000
-22.822473 -67.168461 0.000000
2.913484 -7.371701 0.000000
7.002424 -3.512439 0.000000
7.820263 -14.454550 0.000000
7.195995 -10.411695 0.000000
7.245268 -5.377814 0.000000
-1.152313 -9.547410 0.000000
-5.027514 -11.624569 0.000000
0.680826 -8.094190 0.000000
1.715612 -12.334138 0.000000
7.534162 18.986492 0.000000
-1.200652 -12.178251 0.000000
2.633874 -18.976793 0.000000
-6.460882 -8.570131 0.000000
2.279871 -6.454826 0.000000
-7.314110 -10.342847 0.000000
0.928732 -15.621673 0.000000
8.558040 0.410366 0.000000
-4.615897 -6.602167 0.000000
1.239725 -12.552319 0.000000
5.296103 -6.738855 0.000000
0.382059 -8.667524 0.000000
-1.058792 -14.808403 0.000000
-20.833511 -11.748661 0.000000
36.983134 -41.027091 0.000000
-30.385715 15.573549 0.000000
3.729665 -5.758676 0.000000
1.723533 -7.740371 0.000000
5.784771 -16.452888 0.000000
2.087961 -14.030226 0.000000
1.715816 -9.109756 0.000000
-2.030964 -13.141491 0.000000
2.544586 -14.394215 0.000000
0.611654 -15.756894 0.000000
-1.539831 -13.791706 0.000000
1.126251 -20.615150 0.000000
-0.513719 -17.744515 0.000000
-3.904809 -13.110463 0.000000
</DataArray>
<DataArray type="Float32" Name="Masse" format="ascii">
1.000000
1.000000
1.000000
1.000000
1.000000
1.000000
1.000000
1.000000
1.000000
1.000000
1.000000
1.000000
1.000000
1.000000
1.000000
1.000000
1.000000
1.000000
1.000000
1.000000
1.000000
1.000000
1.000000
1.000000
1.000000
1.000000
1.000000
1.000000
1.000000
1.000000
1.000000
1.000000
1.000000
1.000000
1.000000
1.000000
1.000000
1.000000
1.000000
1.000000
1.000000
1.000000
1.000000
1.000000
1.000000
1.000000
1.000000
1.000000
1.000000
1.000000
1.000000
1.000000
1.000000
1.000000
1.000000
1.000000
1.000000
1.000000
1.000000
1.000000
1.000000
1.000000
1.000000
1.000000
1.000000
1.000000
1.000000
1.000000
1.000000
1.000000
1.000000
1.000000
1.000000
1.000000
1.000000
1.000000
1.000000
1.000000
1.000000
1.000000
1.000000
1.000000
1.000000
1.000000
1.000000
1.000000
1.000000
1.000000
1.000000
1.000000
1.000000
1.000000
1.000000
1.000000
1.000000
1.000000
1.000000
1.000000
1.000000
1.000000
1.000000
1.000000
1.000000
1.000000
1.000000
1.000000
1.000000
1.000000
1.000000
1.000000
1.000000
1.000000
1.000000
1.000000
1.000000
1.000000
1.000000
1.000000
1.000000
1.000000
1.000000
1.000000
1.000000
1.000000
1.000000
1.000000
1.000000
1.000000
1.000000
1.000000
1.000000
1.000000
1.000000
1.000000
1.000000
1.000000
1.000000
1.000000
1.000000
1.000000
1.000000
1.000000
1.000000
1.000000
1.000000
1.000000
1.000000
1.000000
1.000000
1.000000
1.000000
1.000000
1.000000
1.000000
1.000000
1.000000
1.000000
1.000000
1.000000
1.000000
1.000000
1.000000
1.000000
1.000000
1.000000
1.000000
1.000000
1.000000
1.000000
1.000000
1.000000
1.000000
1.000000
1.000000
1.000000
1.000000
1.000000
1.000000
1.000000
1.000000
1.000000
1.000000
1.000000
1.000000
1.000000
1.000000
1.000000
1.000000
1.000000
1.000000
1.000000
1.000000
1.000000
1.000000
1.000000
1.000000
1.000000
1.000000
1.000000
1.000000
1.000000
1.000000
1.000000
1.000000
1.000000
1.000000
1.000000
1.000000
1.000000
1.000000
1.000000
1.000000
1.000000
1.000000
1.000000
1.000000
1.000000
1.000000
1.000000
1.000000
1.000000
1.000000
1.000000
1.000000
1.000000
1.000000
1.000000
1.000000
1.000000
1.000000
1.000000
1.000000
1.000000
1.000000
1.000000
1.000000
1.000000
1.000000
1.000000
1.000000
1.000000
1.000000
1.000000
1.000000
1.000000
1.000000
1.000000
1.000000
1.000000
1.000000
1.000000
1.000000
1.000000
1.000000
1.000000
1.000000
1.000000
1.000000
1.000000
1.000000
1.000000
1.000000
1.000000
1.000000
1.000000
1.000000
1.000000
1.000000
1.000000
1.000000
1.000000
1.000000
1.000000
1.000000
1.000000
1.000000
1.000000
1.000000
1.000000
1.000000
1.000000
1.000000
1.000000
1.000000
1.000000
1.000000
1.000000
1.000000
1.000000
1.000000
1.000000
1.000000
1.000000
1.000000
1.000000
1.000000
1.000000
1.000000
1.000000
1.000000
1.000000
1.000000
1.000000
1.000000
1.000000
1.000000
1.000000
1.000000
1.000000
1.000000
1.000000
1.000000
1.000000
1.000000
1.000000
1.000000
1.000000
1.000000
1.000000
1.000000
1.000000
1.000000
1.000000
1.000000
1.000000
1.000000
1.000000
1.000000
1.000000
1.000000
1.000000
1.000000
1.000000
1.000000
1.000000
1.000000
1.000000
1.000000
1.000000
1.000000
1.000000
1.000000
1.000000
1.000000
1.000000
1.000000
1.000000
1.000000
1.000000
1.000000
1.000000
1.000000
1.000000
1.000000
1.000000
1.000000
1.000000
1.000000
1.000000
1.000000
1.000000
1.000000
1.000000
1.000000
1.000000
1.000000
1.000000
1.000000
1.000000
1.000000
1.000000
1.000000
1.000000
1.000000
1.000000
1.000000
1.000000
1.000000
1.000000
1.000000
1.000000
1.000000
1.000000
1.000000
1.000000
1.000000
1.000000
1.000000
1.000000
1.000000
1.000000
1.000000
1.000000
1.000000
1.000000
1.000000
1.000000
1.000000
1.000000
1.000000
1.000000
1.000000
1.000000
1.000000
1.000000
1.000000
1.000000
1.000000
1.000000
1.000000
1.000000
1.000000
1.000000
1.000000
1.000000
1.000000
1.000000
1.000000
1.000000
1.000000
1.000000
1.000000
1.000000
1.000000
1.000000
1.000000
1.000000
1.000000
1.000000
1.000000
1.000000
1.000000
1.000000
1.000000
1.000000
1.000000
1.000000
1.000000
1.000000
1.000000
1.000000
1.000000
1.000000
1.000000
1.000000
</DataArray>
</PointData>
<Cells>
<DataArray type="Int32" Name="connectivity" format="ascii">
</DataArray>