<VTKFile type="UnstructuredGrid" version="0.1" byte_order="LittleEndian">
<UnstructuredGrid>
<Piece NumberOfPoints="446" NumberOfCells="0">
<Points>
<DataArray name="Position" type="Float32" NumberOfComponents="3"  format="ascii">
-21.150392 -4.598945 0.000000
-20.171465 -3.578417 0.000000
-19.355122 -3.606112 0.000000
-18.396396 -3.561450 0.000000
-17.380165 -3.518615 0.000000
-16.135187 -3.549309 0.000000
-14.136396 -3.296769 0.000000
-13.113473 -3.943853 0.000000
-10.530891 -3.548661 0.000000
-9.514776 -2.997968 0.000000
-9.575977 -2.298204 0.000000
-7.025014 -3.687543 0.000000
-6.711456 -2.499499 0.000000
-6.875000 -3.837986 0.000000
-4.952308 -2.322827 0.000000
-4.542379 -3.949903 0.000000
-6.675108 -1.675957 0.000000
-3.250828 -3.214011 0.000000
-2.288361 -3.131009 0.000000
-1.201094 -0.721979 0.000000
0.697494 -2.214599 0.000000
1.289429 -3.096453 0.000000
2.136152 -3.208959 0.000000
2.649862 -3.920196 0.000000
3.776222 -2.598132 0.000000
4.614399 -2.536262 0.000000
6.490947 -2.832285 0.000000
7.157201 -2.822157 0.000000
5.809597 -3.497720 0.000000
9.717933 -3.422982 0.000000
12.559854 -5.873325 0.000000
10.369634 -1.981882 0.000000
12.648512 -2.775650 0.000000
12.935391 -3.571956 0.000000
15.168331 -3.365611 0.000000
16.257049 -3.519977 0.000000
17.274884 -3.562513 0.000000
18.237086 -3.608714 0.000000
19.208527 -3.797619 0.000000
19.542707 -4.029747 0.000000
-20.317854 -3.563374 0.000000
-20.308334 -3.819273 0.000000
-19.466116 -3.460225 0.000000
-18.478458 -3.353208 0.000000
-17.453607 -3.291437 0.000000
-16.600386 -3.179906 0.000000
-16.476316 -3.376747 0.000000
-15.342269 -2.678752 0.000000
-15.756109 -3.054061 0.000000
-14.687804 -3.785970 0.000000
-12.321560 -4.220699 0.000000
-12.581662 -2.537047 0.000000
-10.791153 -3.934502 0.000000
-8.421563 -2.523505 0.000000
-8.141917 -4.019054 0.000000
-6.337070 -2.313830 0.000000
-1.919858 -4.559063 0.000000
-3.418091 -2.973573 0.000000
-2.233291 -2.983270 0.000000
-1.065733 -5.465534 0.000000
-0.689717 -3.971576 0.000000
0.968150 -3.023817 0.000000
2.302623 -2.967369 0.000000
3.706181 -2.313440 0.000000
4.842409 -3.678527 0.000000
6.233120 -3.790380 0.000000
6.566560 -3.530193 0.000000
8.110059 -3.572567 0.000000
11.664559 -2.988173 0.000000
9.873992 -3.136301 0.000000
9.253082 -0.717595 0.000000
13.734852 -4.481205 0.000000
13.560321 -3.853357 0.000000
15.427936 -3.116117 0.000000
15.320286 -3.366659 0.000000
16.330893 -3.292183 0.000000
17.356921 -3.353511 0.000000
18.351118 -3.459961 0.000000
19.282836 -3.648752 0.000000
19.078296 -3.659766 0.000000
-20.190588 -2.831975 0.000000
-20.120860 -2.910216 0.000000
-19.290194 -2.758168 0.000000
-18.353971 -2.707353 0.000000
-17.356453 -2.669356 0.000000
-16.323355 -2.640232 0.000000
-15.265968 -2.618087 0.000000
-14.198754 -2.592304 0.000000
-13.113176 -2.574627 0.000000
-12.020721 -2.557179 0.000000
-10.922781 -2.537127 0.000000
-9.833479 -2.501354 0.000000
-8.716557 -2.484673 0.000000
-7.609348 -2.453129 0.000000
-6.508144 -2.415853 0.000000
-5.405650 -2.391946 0.000000
-4.224503 -2.339254 0.000000
-3.319179 -2.325050 0.000000
-2.091293 -2.444127 0.000000
-1.166550 -2.393710 0.000000
0.067367 -2.396666 0.000000
0.965374 -2.443051 0.000000
2.206149 -2.316812 0.000000
3.152770 -2.316867 0.000000
4.268992 -2.381920 0.000000
5.386876 -2.413831 0.000000
6.492742 -2.446173 0.000000
7.601919 -2.472096 0.000000
8.640128 -2.584657 0.000000
9.794330 -2.538652 0.000000
10.825621 -2.688335 0.000000
11.988138 -2.576689 0.000000
13.071288 -2.597510 0.000000
14.143917 -2.616404 0.000000
15.200036 -2.641783 0.000000
16.233644 -2.670608 0.000000
17.231918 -2.709046 0.000000
18.169472 -2.761557 0.000000
18.996728 -2.920877 0.000000
19.069870 -2.838334 0.000000
-20.163405 -1.933551 0.000000
-20.021466 -1.990824 0.000000
-19.243050 -1.898929 0.000000
-18.317730 -1.867274 0.000000
-17.328342 -1.842155 0.000000
-16.300429 -1.821496 0.000000
-15.247657 -1.803598 0.000000
-14.177998 -1.786939 0.000000
-13.095052 -1.770460 0.000000
-12.001549 -1.752846 0.000000
-10.900353 -1.731819 0.000000
-9.794293 -1.703958 0.000000
-8.685456 -1.671118 0.000000
-7.564616 -1.631050 0.000000
-6.497457 -1.555531 0.000000
-5.366203 -1.536626 0.000000
-4.115267 -1.452422 0.000000
-3.675181 -1.721872 0.000000
-2.133179 -1.296010 0.000000
-1.904210 -0.211111 0.000000
0.897505 -0.154853 0.000000
1.023668 -1.287516 0.000000
2.262612 -1.390947 0.000000
3.375587 -1.252316 0.000000
4.231068 -1.532502 0.000000
5.360758 -1.558048 0.000000
6.438543 -1.616908 0.000000
7.520866 -1.719103 0.000000
8.664065 -1.707117 0.000000
9.778828 -1.731627 0.000000
10.876714 -1.754898 0.000000
11.970706 -1.772034 0.000000
13.053965 -1.788191 0.000000
14.124180 -1.804570 0.000000
15.177236 -1.822675 0.000000
16.205371 -1.843436 0.000000
17.195052 -1.868882 0.000000
18.120562 -1.901264 0.000000
18.897430 -1.994256 0.000000
19.040555 -1.936576 0.000000
-20.482803 -1.234853 0.000000
-19.642557 -0.804465 0.000000
-19.218677 -0.996669 0.000000
-18.297722 -0.983827 0.000000
-17.311461 -0.972287 0.000000
-16.285221 -0.961046 0.000000
-15.233132 -0.949240 0.000000
-14.163752 -0.937046 0.000000
-13.080281 -0.925086 0.000000
-11.982910 -0.910138 0.000000
-10.875085 -0.887248 0.000000
-9.760962 -0.853655 0.000000
-8.644522 -0.811162 0.000000
-7.516938 -0.755898 0.000000
-6.217818 -0.796521 0.000000
-5.327539 -0.625971 0.000000
-3.881474 -0.518514 0.000000
-3.501538 -0.549733 0.000000
-2.978825 -0.419584 0.000000
-0.480826 -0.651939 0.000000
0.118958 -0.421140 0.000000
1.877417 -0.430189 0.000000
1.670008 -0.991878 0.000000
2.634311 -0.490930 0.000000
4.192184 -0.622580 0.000000
4.931170 -0.984162 0.000000
6.360656 -0.792216 0.000000
7.512801 -0.816145 0.000000
8.637234 -0.855268 0.000000
9.749978 -0.888936 0.000000
10.858388 -0.911528 0.000000
11.956131 -0.926424 0.000000
13.039950 -0.938292 0.000000
14.109662 -0.950390 0.000000
15.161978 -0.962194 0.000000
16.188356 -0.973501 0.000000
17.174684 -0.985218 0.000000
18.095513 -0.998393 0.000000
19.107216 -1.254439 0.000000
18.771248 -0.788963 0.000000
-21.260654 -0.922058 0.000000
-18.860155 0.786908 0.000000
-19.215533 -0.082003 0.000000
-18.293797 -0.088142 0.000000
-17.306108 -0.090501 0.000000
-16.277631 -0.088860 0.000000
-15.222580 -0.081937 0.000000
-14.153375 -0.071362 0.000000
-13.072356 -0.067698 0.000000
-11.965996 -0.059855 0.000000
-10.844662 -0.035251 0.000000
-9.715065 0.019158 0.000000
-8.586101 0.078865 0.000000
-7.371403 0.179951 0.000000
-6.305038 0.183098 0.000000
-3.854980 5.016149 0.000000
-3.656556 0.379495 0.000000
-3.607897 0.389436 0.000000
-1.976048 0.386725 0.000000
-0.681110 0.253067 0.000000
-0.220001 0.497221 0.000000
0.645845 0.240315 0.000000
2.204114 0.345414 0.000000
2.453435 0.386925 0.000000
4.108714 0.348457 0.000000
5.147111 0.148196 0.000000
6.234271 0.173425 0.000000
7.459109 0.075581 0.000000
8.595208 0.017934 0.000000
9.720160 -0.035913 0.000000
10.841300 -0.060747 0.000000
11.948170 -0.068951 0.000000
13.029645 -0.072747 0.000000
14.099211 -0.083188 0.000000
15.154405 -0.090006 0.000000
16.182942 -0.091639 0.000000
17.170597 -0.089332 0.000000
18.092030 -0.083414 0.000000
17.173232 1.642693 0.000000
20.703220 -1.777378 0.000000
-20.156474 0.846616 0.000000
-20.014772 0.902521 0.000000
-19.233990 0.819059 0.000000
-18.306267 0.794435 0.000000
-17.312668 0.777852 0.000000
-16.277652 0.769465 0.000000
-15.210775 0.774164 0.000000
-14.134378 0.822004 0.000000
-13.092217 0.780355 0.000000
-11.951022 0.768585 0.000000
-10.807874 0.791867 0.000000
-9.627112 0.402675 0.000000
-8.522538 0.799046 0.000000
-7.126517 -0.508680 0.000000
-6.436723 1.248056 0.000000
-2.834689 -1.115757 0.000000
-3.659628 1.213515 0.000000
-3.756844 -0.874850 0.000000
-2.351170 1.130433 0.000000
0.672545 0.647103 0.000000
-1.255018 1.081703 0.000000
-1.921102 -1.866979 0.000000
2.582878 -0.628904 0.000000
2.766540 1.424430 0.000000
3.730688 0.363162 0.000000
5.309507 1.249258 0.000000
6.020215 -0.530077 0.000000
7.414200 0.788309 0.000000
8.493200 0.431309 0.000000
9.685334 0.792196 0.000000
10.825706 0.767782 0.000000
11.967615 0.779087 0.000000
13.010735 0.818484 0.000000
14.087730 0.772742 0.000000
15.154504 0.768303 0.000000
16.189506 0.776737 0.000000
17.183114 0.793385 0.000000
18.107859 0.815083 0.000000
18.890303 0.901464 0.000000
19.033173 0.845093 0.000000
-20.177301 1.770048 0.000000
-20.115896 1.850492 0.000000
-19.277876 1.687671 0.000000
-18.336669 1.643543 0.000000
-17.332178 1.609824 0.000000
-16.287578 1.589064 0.000000
-15.198460 1.582171 0.000000
-14.105759 1.142877 0.000000
-13.298444 1.583492 0.000000
-11.919884 1.524167 0.000000
-10.782126 1.567159 0.000000
-9.600457 1.600351 0.000000
-8.389141 1.582245 0.000000
-6.628451 0.994434 0.000000
-6.376563 1.154503 0.000000
-3.146019 -0.676116 0.000000
-10.949385 2.308184 0.000000
-3.473994 2.388891 0.000000
-2.460715 2.035230 0.000000
-1.758576 1.770174 0.000000
0.513662 4.707894 0.000000
0.765548 2.248204 0.000000
2.263023 2.298437 0.000000
9.829778 2.285163 0.000000
0.343637 -1.539772 0.000000
5.226702 1.189260 0.000000
5.501105 1.002341 0.000000
7.261898 1.579831 0.000000
8.498911 1.602109 0.000000
9.666225 1.570083 0.000000
10.794563 1.523105 0.000000
12.173719 1.583864 0.000000
12.969480 1.157428 0.000000
14.075853 1.580728 0.000000
15.164582 1.587640 0.000000
16.208982 1.608079 0.000000
17.213391 1.640037 0.000000
18.154773 1.689539 0.000000
18.990995 1.850651 0.000000
19.054425 1.769616 0.000000
-20.187273 2.560401 0.000000
-20.389023 2.549311 0.000000
-19.448199 2.363787 0.000000
-18.448301 2.263839 0.000000
-17.412791 2.226268 0.000000
-16.398969 2.256973 0.000000
-15.248176 2.245271 0.000000
-14.076301 1.984125 0.000000
-14.167928 1.843974 0.000000
-11.946914 2.144743 0.000000
-7.321446 3.397143 0.000000
-5.445046 1.860371 0.000000
-2.447596 1.430517 0.000000
-1.785394 1.243347 0.000000
-4.689807 -4.496599 0.000000
-0.056130 2.636453 0.000000
5.416818 -0.722160 0.000000
2.370910 2.322484 0.000000
0.317953 0.632136 0.000000
1.369081 0.990238 0.000000
4.361031 1.774916 0.000000
2.231556 1.331952 0.000000
8.925866 -1.786043 0.000000
8.940715 4.567534 0.000000
10.731850 2.235643 0.000000
13.043778 1.834072 0.000000
12.949555 1.975023 0.000000
14.218734 2.120966 0.000000
15.372432 2.075724 0.000000
16.303039 2.204966 0.000000
17.325255 2.263379 0.000000
18.324996 2.363411 0.000000
19.265900 2.550966 0.000000
19.064241 2.557316 0.000000
-20.649135 2.930976 0.000000
-20.310881 2.692145 0.000000
-19.340527 2.516272 0.000000
-18.372756 2.472642 0.000000
-17.349648 2.415448 0.000000
-16.245888 2.315739 0.000000
-15.230726 2.256074 0.000000
-14.179118 2.225307 0.000000
-13.098031 2.468588 0.000000
-11.753365 2.412240 0.000000
-45.001713 -0.772463 0.000000
-8.106602 -8.819138 0.000000
-9.523733 1.029333 0.000000
-5.445914 -11.726106 0.000000
-5.577538 2.356657 0.000000
-1.301645 -0.968729 0.000000
5.308851 4.530568 0.000000
-4.276627 7.842821 0.000000
18.865632 -24.406746 0.000000
-20.135727 -24.248424 0.000000
3.432647 7.774930 0.000000
-3.946762 -1.530912 0.000000
0.141337 -1.744451 0.000000
4.458535 2.344696 0.000000
-27.670892 -5.893125 0.000000
12.365637 3.087235 0.000000
8.021572 6.202052 0.000000
10.323610 -0.045948 0.000000
10.719338 2.322440 0.000000
11.974463 2.466480 0.000000
13.054991 2.223933 0.000000
14.014225 2.379959 0.000000
15.026414 2.495951 0.000000
16.213402 2.435684 0.000000
17.249632 2.472062 0.000000
18.217260 2.515662 0.000000
19.186079 2.692463 0.000000
19.525319 2.930565 0.000000
-8.781357 1.075647 0.000000
-10.441671 0.865461 0.000000
-3.482768 -6.649107 0.000000
-371.496448 -33.627959 0.000000
2.366869 -6.639085 0.000000
9.331116 0.829382 0.000000
7.623962 1.096768 0.000000
-7.246646 -2.267679 0.000000
-5.108117 0.959626 0.000000
-3.785075 -2.073549 0.000000
-1.622784 -1.594199 0.000000
-0.093982 -1.853403 0.000000
-39.495456 -83.970380 0.000000
2.476409 -2.220265 0.000000
3.972182 0.817219 0.000000
6.439268 -1.934226 0.000000
-6.893384 -4.575504 0.000000
-3.851738 -2.122896 0.000000
-3.035764 -1.646110 0.000000
4.256545 -3.779499 0.000000
-0.042312 -0.471953 0.000000
3.088515 -1.273362 0.000000
2.830967 -2.032440 0.000000
2.249583 -1.915444 0.000000
-5.497929 0.551909 0.000000
-3.454055 -1.196835 0.000000
-1.824051 5.935627 0.000000
-1.932029 -0.993341 0.000000
-2.243105 -0.441134 0.000000
-1.152979 -0.651831 0.000000
1.484692 -0.422252 0.000000
1.094379 -0.876001 0.000000
2.719424 -1.477575 0.000000
5.917921 2.009885 0.000000
-5.391886 0.648844 0.000000
-3.684641 -0.177294 0.000000
-1.507935 2.019884 0.000000
-2.269848 0.104285 0.000000
-1.157901 -0.392937 0.000000
-5.525580 1.605222 0.000000
3.764593 -2.468638 0.000000
-0.622333 1.756753 0.000000
2.542716 -0.228516 0.000000
4.345650 0.882657 0.000000
-4.220746 0.231100 0.000000
-3.921887 0.140532 0.000000
-2.807449 1.195095 0.000000
-2.155657 -0.259055 0.000000
-0.871565 0.202730 0.000000
0.089749 -0.195416 0.000000
1.157510 -0.284453 0.000000
1.360834 -0.157850 0.000000
2.970291 0.317605 0.000000
3.107300 0.202849 0.000000
</DataArray>
</Points>
<PointData Vectors="vector">
<DataArray type="Float32" Name="Velocity" NumberOfComponents="3" format="ascii">
3.219096 2.616624 0.000000
8.466881 7.404269 0.000000
2.344140 1.610716 0.000000
1.725534 1.878383 0.000000
1.498976 2.102747 0.000000
5.973960 0.327213 0.000000
26.644256 4.989007 0.000000
25.005329 -9.540193 0.000000
57.201371 -1.610733 0.000000
53.925161 6.363359 0.000000
31.269328 23.607923 0.000000
62.909414 -5.972677 0.000000
46.378386 19.917644 0.000000
18.315084 -10.804602 0.000000
38.493639 24.304166 0.000000
23.072882 -15.727509 0.000000
-65.411911 44.993402 0.000000
0.473790 3.185270 0.000000
-0.637027 2.603968 0.000000
-2.607623 68.520039 0.000000
18.259496 27.704415 0.000000
5.595527 3.534671 0.000000
-0.413209 3.231558 0.000000
-15.326212 -17.453789 0.000000
-14.339413 18.439412 0.000000
-19.995905 19.484074 0.000000
-1.397406 12.352741 0.000000
-11.317058 12.910098 0.000000
-67.961329 -2.927088 0.000000
-1.163526 2.717819 0.000000
43.472488 -64.918833 0.000000
-33.971756 38.160922 0.000000
-10.709791 15.880635 0.000000
-28.431923 -1.348823 0.000000
-4.784842 3.971885 0.000000
-1.500737 2.086754 0.000000
-1.708344 1.912149 0.000000
-2.313656 1.633324 0.000000
-4.591287 2.797233 0.000000
-4.865597 4.393326 0.000000
0.897876 6.867421 0.000000
1.105379 -5.167611 0.000000
0.808840 5.662069 0.000000
0.935082 5.648560 0.000000
0.789238 5.655993 0.000000
-3.827019 7.948085 0.000000
-25.123984 2.934500 0.000000
-23.415836 18.148341 0.000000
-55.838555 9.278207 0.000000
-56.318603 -6.965980 0.000000
-29.075574 -16.791591 0.000000
-57.895296 23.291400 0.000000
-45.221045 -11.786350 0.000000
-17.239632 20.096345 0.000000
-37.634026 -15.634514 0.000000
-22.096425 25.886829 0.000000
66.956533 -35.303432 0.000000
-0.606188 6.314508 0.000000
0.406812 7.142378 0.000000
1.492985 -59.076873 0.000000
-18.118957 -18.303324 0.000000
-5.453493 6.237232 0.000000
0.657416 6.348917 0.000000
9.415910 25.358601 0.000000
12.779057 -9.075813 0.000000
18.949707 -10.442702 0.000000
0.294092 -2.734962 0.000000
10.147527 -3.670879 0.000000
66.766403 9.478645 0.000000
-0.253782 6.132178 0.000000
-45.064224 72.796392 0.000000
37.163207 -21.927146 0.000000
9.235190 -7.617527 0.000000
26.862063 8.570497 0.000000
2.683762 4.429054 0.000000
-0.773307 5.682821 0.000000
-0.929271 5.648533 0.000000
-0.788492 5.626698 0.000000
0.990164 3.543955 0.000000
-5.752079 1.681449 0.000000
1.443743 2.284929 0.000000
6.729106 -0.427700 0.000000
1.860654 1.205491 0.000000
1.506464 1.309473 0.000000
1.263792 1.377794 0.000000
1.072791 1.414599 0.000000
0.923655 0.960202 0.000000
0.618715 1.832116 0.000000
0.762178 1.686619 0.000000
0.690800 1.557960 0.000000
0.724034 1.673322 0.000000
-0.369579 3.169541 0.000000
0.742594 1.868263 0.000000
0.790115 1.957780 0.000000
0.740203 2.164286 0.000000
0.560469 1.809251 0.000000
1.596076 2.577594 0.000000
-0.189455 2.769311 0.000000
0.175749 2.118557 0.000000
0.452222 2.240084 0.000000
0.399076 2.155540 0.000000
-0.281302 2.092008 0.000000
0.367883 2.876556 0.000000
-0.625718 2.767208 0.000000
-0.873467 2.158297 0.000000
-0.678895 2.133649 0.000000
-0.664605 1.983944 0.000000
-0.719837 1.884746 0.000000
-0.823358 1.629274 0.000000
-0.641552 1.729372 0.000000
-5.351902 -6.333009 0.000000
-0.785775 1.675616 0.000000
-0.905818 1.523193 0.000000
-0.929061 1.570941 0.000000
-1.061117 1.390305 0.000000
-1.259716 1.379488 0.000000
-1.501678 1.305928 0.000000
-1.850137 1.194184 0.000000
-6.637908 -0.425844 0.000000
-1.504702 2.226787 0.000000
1.854482 1.095079 0.000000
6.533931 0.009244 0.000000
1.967623 0.694824 0.000000
1.587785 0.764603 0.000000
1.318744 0.814002 0.000000
1.125197 0.851977 0.000000
0.978640 0.881144 0.000000
0.862253 0.931929 0.000000
0.803500 0.977276 0.000000
0.770903 1.000886 0.000000
0.766049 1.016576 0.000000
0.750978 1.114659 0.000000
0.756088 1.202630 0.000000
0.992987 1.261393 0.000000
0.395190 1.590299 0.000000
0.770181 1.638113 0.000000
2.752854 2.043124 0.000000
-9.045015 -6.056609 0.000000
0.192073 2.917865 0.000000
1.568814 3.567898 0.000000
0.374301 3.692252 0.000000
-0.098120 3.069584 0.000000
1.289980 2.434735 0.000000
0.646389 3.452976 0.000000
-0.954658 1.685349 0.000000
-0.653464 1.733844 0.000000
-1.365773 1.086838 0.000000
-0.898072 1.074318 0.000000
-0.690554 1.215694 0.000000
-0.515660 1.217407 0.000000
-0.816678 0.980268 0.000000
-0.823246 0.980244 0.000000
-0.886984 0.940975 0.000000
-0.983188 0.910149 0.000000
-1.120803 0.858390 0.000000
-1.318281 0.813985 0.000000
-1.587258 0.760525 0.000000
-1.964261 0.685752 0.000000
-6.522641 0.004317 0.000000
-1.865559 1.083135 0.000000
-16.824554 -10.636417 0.000000
25.329066 10.998279 0.000000
2.011398 0.251611 0.000000
1.628873 0.275838 0.000000
1.351319 0.297585 0.000000
1.155228 0.319843 0.000000
1.010777 0.346990 0.000000
0.899293 0.376783 0.000000
0.827974 0.395166 0.000000
0.808150 0.418481 0.000000
0.820339 0.478699 0.000000
0.843931 0.577902 0.000000
0.858158 0.659707 0.000000
1.106580 0.863853 0.000000
2.104287 0.156997 0.000000
0.856446 1.156695 0.000000
3.986810 1.448623 0.000000
2.383545 -0.169998 0.000000
-4.442367 2.589156 0.000000
3.412428 0.904408 0.000000
1.272633 2.498224 0.000000
3.424973 2.791734 0.000000
-4.941339 -2.795059 0.000000
-5.775935 1.270633 0.000000
-0.981438 1.199437 0.000000
-3.129844 -1.039263 0.000000
-1.225118 0.750726 0.000000
-0.897938 0.672977 0.000000
-0.683185 0.612204 0.000000
-0.876824 0.461934 0.000000
-0.834363 0.427258 0.000000
-0.848252 0.400548 0.000000
-0.914763 0.382939 0.000000
-1.018943 0.355078 0.000000
-1.158265 0.323865 0.000000
-1.354022 0.297699 0.000000
-1.633096 0.272090 0.000000
-2.028231 0.236021 0.000000
2.642536 -9.450597 0.000000
-11.134444 9.769033 0.000000
-46.699919 -36.432099 0.000000
55.149084 36.206212 0.000000
2.042588 -0.144280 0.000000
1.631112 -0.188802 0.000000
1.360249 -0.200594 0.000000
1.173383 -0.196425 0.000000
1.044069 -0.168441 0.000000
0.920694 -0.127198 0.000000
0.816213 -0.159272 0.000000
0.845335 -0.168337 0.000000
0.932775 -0.072563 0.000000
0.997492 0.293856 0.000000
0.967254 0.278682 0.000000
1.994446 0.266704 0.000000
1.245887 0.283479 0.000000
19.767086 62.125844 0.000000
6.342057 0.551402 0.000000
-4.370927 -0.425664 0.000000
0.209220 0.855899 0.000000
-0.681073 -0.700482 0.000000
3.674565 0.802825 0.000000
-3.825595 -0.981855 0.000000
0.575483 -0.018836 0.000000
-5.373166 -0.040449 0.000000
-1.954566 0.611447 0.000000
-1.421630 0.113086 0.000000
-2.075028 0.245474 0.000000
-0.980642 0.275777 0.000000
-0.786330 0.290813 0.000000
-0.916020 -0.036609 0.000000
-0.901469 -0.141207 0.000000
-0.839947 -0.153059 0.000000
-0.935904 -0.124756 0.000000
-1.052849 -0.166091 0.000000
-1.178774 -0.194877 0.000000
-1.364886 -0.200163 0.000000
-1.640324 -0.190310 0.000000
-2.063267 -0.164946 0.000000
-78.358117 72.949946 0.000000
70.434290 -72.385259 0.000000
1.893064 -1.044702 0.000000
6.550257 0.074971 0.000000
2.035541 -0.720936 0.000000
1.590377 -0.688769 0.000000
1.343646 -0.724925 0.000000
1.177801 -0.741610 0.000000
1.114154 -0.699423 0.000000
1.030594 -0.162146 0.000000
0.636823 -0.751525 0.000000
0.888166 -0.822731 0.000000
1.193576 -0.761601 0.000000
0.856663 -4.968137 0.000000
-0.378751 -3.130563 0.000000
1.415459 -6.295647 0.000000
-2.670632 -1.608509 0.000000
8.646899 -6.099953 0.000000
0.783364 -1.107628 0.000000
-5.051179 -7.708116 0.000000
-1.996412 -2.751879 0.000000
5.971282 -5.163300 0.000000
-4.982264 -2.628792 0.000000
-18.467796 -21.331316 0.000000
0.024625 -7.031994 0.000000
0.715657 1.013257 0.000000
-0.910328 -3.112154 0.000000
2.635080 -2.196729 0.000000
-1.324499 -6.361947 0.000000
0.681716 -3.255705 0.000000
-0.815683 -4.692679 0.000000
-1.114218 -0.729602 0.000000
-0.959228 -0.818704 0.000000
-0.665110 -0.746602 0.000000
-1.050457 -0.201322 0.000000
-1.121552 -0.700798 0.000000
-1.183424 -0.742047 0.000000
-1.347468 -0.724774 0.000000
-1.594247 -0.673111 0.000000
-2.262010 -0.890453 0.000000
-6.557955 0.085533 0.000000
-1.897575 -1.046668 0.000000
1.457062 -2.282237 0.000000
6.717159 0.717032 0.000000
1.879976 -1.154067 0.000000
1.521412 -1.155709 0.000000
1.292599 -1.252205 0.000000
1.150638 -1.306804 0.000000
1.175263 -1.316740 0.000000
0.025270 -4.116427 0.000000
-0.204518 -1.690903 0.000000
1.006923 -1.651035 0.000000
1.084552 -1.619782 0.000000
1.367040 -1.618731 0.000000
1.161908 -1.927563 0.000000
4.164840 -3.066644 0.000000
3.419361 -2.208674 0.000000
7.436198 -11.571891 0.000000
-10.117443 -0.222744 0.000000
0.750924 0.265375 0.000000
-0.630536 -2.253295 0.000000
-1.977469 -2.207486 0.000000
0.390896 33.829215 0.000000
-2.268829 -1.096639 0.000000
-2.864425 -4.936479 0.000000
10.197758 -0.264918 0.000000
-14.888090 -12.912236 0.000000
-3.560508 -1.036651 0.000000
-4.157420 -2.962346 0.000000
-1.245315 -1.973104 0.000000
-0.817777 -1.516817 0.000000
-0.877660 -1.537268 0.000000
-1.070325 -1.655433 0.000000
0.184718 -1.683439 0.000000
-0.071288 -4.070888 0.000000
-1.178982 -1.321115 0.000000
-1.146698 -1.310248 0.000000
-1.297318 -1.268339 0.000000
-1.809145 -1.807911 0.000000
-1.889768 -1.098276 0.000000
-6.710189 0.701046 0.000000
-1.475803 -2.234000 0.000000
5.794467 -1.643132 0.000000
-1.034755 -3.508201 0.000000
0.870032 -5.620806 0.000000
0.995261 -5.632532 0.000000
1.003712 -5.083395 0.000000
0.588021 -4.319122 0.000000
2.753606 -5.240038 0.000000
0.373423 -3.750578 0.000000
0.649173 0.403275 0.000000
-0.153893 -5.988981 0.000000
24.758571 21.077827 0.000000
0.743434 -2.827701 0.000000
9.220431 -9.503346 0.000000
6.222241 0.528844 0.000000
-9.402702 -39.857580 0.000000
2.438657 -2.825220 0.000000
20.015290 -14.642376 0.000000
3.855171 -0.366245 0.000000
-8.966958 -3.296120 0.000000
-8.162163 -11.818887 0.000000
-0.139376 -3.354998 0.000000
-109.344962 -23.662547 0.000000
6.550701 -75.429430 0.000000
-12.567966 33.929356 0.000000
-1.890006 -2.317479 0.000000
-0.644792 0.342327 0.000000
-0.449081 -3.952495 0.000000
1.082494 -6.887901 0.000000
2.767232 -8.673134 0.000000
-0.610146 -5.818953 0.000000
-0.997972 -5.636647 0.000000
-0.874290 -5.619341 0.000000
1.044918 -3.430562 0.000000
-5.815520 -1.702145 0.000000
4.883707 -4.358970 0.000000
4.679022 -2.861812 0.000000
2.300699 -1.589691 0.000000
1.729477 -1.867172 0.000000
1.369452 -2.612350 0.000000
1.540291 -3.535607 0.000000
-0.748404 -2.871153 0.000000
0.999070 -6.304336 0.000000
0.635469 -4.609491 0.000000
2.486783 -1.934068 0.000000
-562.523211 -53.835096 0.000000
27.881226 -201.529386 0.000000
-22.598772 -29.813821 0.000000
60.726885 -479.422629 0.000000
2.464995 -5.494041 0.000000
5.155330 -10.341249 0.000000
26.871205 20.053906 0.000000
-3.125903 2.999617 0.000000
32.205368 -37.792651 0.000000
-32.460333 -37.519559 0.000000
3.642981 2.789332 0.000000
-8.848497 -6.085101 0.000000
-4.200692 -42.844138 0.000000
-2.347517 -5.539830 0.000000
-1145.398592 -280.001506 0.000000
107.338174 14.296236 0.000000
-9.197412 66.611054 0.000000
10.035359 -41.865539 0.000000
-0.539977 -5.488522 0.000000
-0.667770 -4.584049 0.000000
-1.019487 -6.283310 0.000000
-3.110259 -1.199030 0.000000
-4.915002 0.825237 0.000000
-1.767691 -1.872098 0.000000
-1.733412 -1.866531 0.000000
-2.308192 -1.586794 0.000000
-4.683692 -2.868268 0.000000
-4.889227 -4.355920 0.000000
-3.125445 1.963123 0.000000
-6.647071 -0.165332 0.000000
1.506226 -12.810314 0.000000
-483.017560 -49.834152 0.000000
-1.486841 -12.781976 0.000000
6.815662 -0.427680 0.000000
2.692290 2.107435 0.000000
-4.880504 -8.568228 0.000000
3.031928 -8.264946 0.000000
-2.256503 -7.336994 0.000000
-5.439034 -4.721205 0.000000
-0.343264 -7.503168 0.000000
-74.109705 -159.332769 0.000000
-0.497058 -8.058179 0.000000
-2.386908 -10.024186 0.000000
6.954307 -6.441754 0.000000
-22.868290 -67.376234 0.000000
3.720854 -11.212768 0.000000
7.072236 -3.939897 0.000000
7.755676 -14.887532 0.000000
3.727840 -10.646376 0.000000
7.086645 -5.596816 0.000000
-0.827171 -10.073433 0.000000
-6.296356 -11.366014 0.000000
-1.439895 -4.450976 0.000000
1.838663 -12.522684 0.000000
7.535973 19.143891 0.000000
-0.534235 -12.395982 0.000000
-0.219678 -13.660766 0.000000
-6.422408 -9.105655 0.000000
2.969334 -6.056310 0.000000
-2.255404 -13.667591 0.000000
0.957189 -15.447666 0.000000
8.637492 0.733153 0.000000
-2.724791 -10.115248 0.000000
1.695235 -12.957692 0.000000
5.094814 -6.253548 0.000000
0.036619 -8.312333 0.000000
0.104515 -14.126140 0.000000
-21.232859 -8.946794 0.000000
37.104685 -41.407609 0.000000
-30.226510 16.268162 0.000000
-1.419007 -13.373741 0.000000
2.098662 -7.347770 0.000000
3.745301 -15.874327 0.000000
1.610140 -15.424372 0.000000
1.260980 -8.830954 0.000000
-0.292675 -17.309256 0.000000
2.273065 -14.426883 0.000000
0.830279 -16.699345 0.000000
1.970815 -15.972710 0.000000
-3.378072 -17.168846 0.000000
0.368756 -14.625772 0.000000
-4.014067 -15.490017 0.000000
</DataArray>
<DataArray type="Float32" Name="Masse" format="ascii">
1.000000
1.000000
1.000000
1.000000
1.000000
1.000000
1.000000
1.000000
1.000000
1.000000
1.000000
1.000000
1.000000
1.000000
1.000000
1.000000
1.000000
1.000000
1.000000
1.000000
1.000000
1.000000
1.000000
1.000000
1.000000
1.000000
1.000000
1.000000
1.000000
1.000000
1.000000
1.000000
1.000000
1.000000
1.000000
1.000000
1.000000
1.000000
1.000000
1.000000
1.000000
1.000000
1.000000
1.000000
1.000000
1.000000
1.000000
1.000000
1.000000
1.000000
1.000000
1.000000
1.000000
1.000000
1.000000
1.000000
1.000000
1.000000
1.000000
1.000000
1.000000
1.000000
1.000000
1.000000
1.000000
1.000000
1.000000
1.000000
1.000000
1.000000
1.000000
1.000000
1.000000
1.000000
1.000000
1.000000
1.000000
1.000000
1.000000
1.000000
1.000000
1.000000
1.000000
1.000000
1.000000
1.000000
1.000000
1.000000
1.000000
1.000000
1.000000
1.000000
1.000000
1.000000
1.000000
1.000000
1.000000
1.000000
1.000000
1.000000
1.000000
1.000000
1.000000
1.000000
1.000000
1.000000
1.000000
1.000000
1.000000
1.000000
1.000000
1.000000
1.000000
1.000000
1.000000
1.000000
1.000000
1.000000
1.000000
1.000000
1.000000
1.000000
1.000000
1.000000
1.000000
1.000000
1.000000
1.000000
1.000000
1.000000
1.000000
1.000000
1.000000
1.000000
1.000000
1.000000
1.000000
1.000000
1.000000
1.000000
1.000000
1.000000
1.000000
1.000000
1.000000
1.000000
1.000000
1.000000
1.000000
1.000000
1.000000
1.000000
1.000000
1.000000
1.000000
1.000000
1.000000
1.000000
1.000000
1.000000
1.000000
1.000000
1.000000
1.000000
1.000000
1.000000
1.000000
1.000000
1.000000
1.000000
1.000000
1.000000
1.000000
1.000000
1.000000
1.000000
1.000000
1.000000
1.000000
1.000000
1.000000
1.000000
1.000000
1.000000
1.000000
1.000000
1.000000
1.000000
1.000000
1.000000
1.000000
1.000000
1.000000
1.000000
1.000000
1.000000
1.000000
1.000000
1.000000
1.000000
1.000000
1.000000
1.000000
1.000000
1.000000
1.000000
1.000000
1.000000
1.000000
1.000000
1.000000
1.000000
1.000000
1.000000
1.000000
1.000000
1.000000
1.000000
1.000000
1.000000
1.000000
1.000000
1.000000
1.000000
1.000000
1.000000
1.000000
1.000000
1.000000
1.000000
1.000000
1.000000
1.000000
1.000000
1.000000
1.000000
1.000000
1.000000
1.000000
1.000000
1.000000
1.000000
1.000000
1.000000
1.000000
1.000000
1.000000
1.000000
1.000000
1.000000
1.000000
1.000000
1.000000
1.000000
1.000000
1.000000
1.000000
1.000000
1.000000
1.000000
1.000000
1.000000
1.000000
1.000000
1.000000
1.000000
1.000000
1.000000
1.000000
1.000000
1.000000
1.000000
1.000000
1.000000
1.000000
1.000000
1.000000
1.000000
1.000000
1.000000
1.000000
1.000000
1.000000
1.000000
1.000000
1.000000
1.000000
1.000000
1.000000
1.000000
1.000000
1.000000
1.000000
1.000000
1.000000
1.000000
1.000000
1.000000
1.000000
1.000000
1.000000
1.000000
1.000000
1.000000
1.000000
1.000000
1.000000
1.000000
1.000000
1.000000
1.000000
1.000000
1.000000
1.000000
1.000000
1.000000
1.000000
1.000000
1.000000
1.000000
1.000000
1.000000
1.000000
1.000000
1.000000
1.000000
1.000000
1.000000
1.000000
1.000000
1.000000
1.000000
1.000000
1.000000
1.000000
1.000000
1.000000
1.000000
1.000000
1.000000
1.000000
1.000000
1.000000
1.000000
1.000000
1.000000
1.000000
1.000000
1.000000
1.000000
1.000000
1.000000
1.000000
1.000000
1.000000
1.000000
1.000000
1.000000
1.000000
1.000000
1.000000
1.000000
1.000000
1.000000
1.000000
1.000000
1.000000
1.000000
1.000000
1.000000
1.000000
1.000000
1.000000
1.000000
1.000000
1.000000
1.000000
1.000000
1.000000
1.000000
1.000000
1.000000
1.000000
1.000000
1.000000
1.000000
1.000000
1.000000
1.000000
1.000000
1.000000
1.000000
1.000000
1.000000
1.000000
1.000000
1.000000
1.000000
1.000000
1.000000
1.000000
1.000000
1.000000
1.000000
1.000000
1.000000
1.000000
1.000000
1.000000
1.000000
1.000000
1.000000
1.000000
1.000000
1.000000
1.000000
1.000000
1.000000
1.000000
1.000000
1.000000
1.000000
1.000000
1.000000
1.000000
1.000000
1.000000
1.000000
1.000000
1.000000
1.000000
1.000000
1.000000
1.000000
1.000000
1.000000
1.000000
1.000000
1.000000
1.000000
1.000000
1.000000
1.000000
1.000000
1.000000
1.000000
</DataArray>
</PointData>
<Cells>
<DataArray type="Int32" Name="connectivity" format="ascii">
</DataArray>