<VTKFile type="UnstructuredGrid" version="0.1" byte_order="LittleEndian">
<UnstructuredGrid>
<Piece NumberOfPoints="443" NumberOfCells="0">
<Points>
<DataArray name="Position" type="Float32" NumberOfComponents="3"  format="ascii">
-20.803687 -4.316153 0.000000
-19.348657 -2.792045 0.000000
-19.151819 -3.344644 0.000000
-18.229750 -3.280001 0.000000
-17.235548 -3.192760 0.000000
-15.549172 -3.480741 0.000000
-11.469525 -2.763663 0.000000
-10.608398 -4.913513 0.000000
-4.801669 -3.680795 0.000000
-4.112530 -2.310450 0.000000
-6.349910 -0.059036 0.000000
-0.731347 -4.273077 0.000000
-2.440873 0.120470 0.000000
-5.031774 -4.870061 0.000000
-1.082367 0.125897 0.000000
-2.229793 -5.491424 0.000000
-13.217168 2.803104 0.000000
-3.211371 -2.810198 0.000000
-2.339604 -2.733435 0.000000
-1.419206 6.082432 0.000000
2.531365 0.548409 0.000000
1.878339 -2.697255 0.000000
2.107262 -2.790362 0.000000
1.114136 -5.628405 0.000000
2.341850 -0.704697 0.000000
2.495488 -0.606650 0.000000
6.741676 -1.633900 0.000000
6.000437 -1.555682 0.000000
-0.991479 -3.754748 0.000000
9.607709 -3.094294 0.000000
16.903849 -12.352360 0.000000
6.897044 1.742054 0.000000
11.443611 -1.540216 0.000000
10.088722 -3.672918 0.000000
14.757404 -2.927630 0.000000
16.113102 -3.223241 0.000000
17.113959 -3.284747 0.000000
18.040591 -3.352889 0.000000
18.635187 -3.477948 0.000000
18.979143 -3.499372 0.000000
-20.114674 -2.855254 0.000000
-20.166851 -4.276439 0.000000
-19.389266 -2.888616 0.000000
-18.355631 -2.803870 0.000000
-17.343126 -2.744153 0.000000
-16.997597 -2.364714 0.000000
-18.992142 -3.014624 0.000000
-17.638658 -0.826874 0.000000
-21.349609 -2.293653 0.000000
-20.322945 -4.437308 0.000000
-15.224085 -5.868790 0.000000
-18.369316 -0.189598 0.000000
-15.313747 -5.062181 0.000000
-10.152116 -0.504012 0.000000
-11.900371 -5.556987 0.000000
-8.541755 0.261358 0.000000
4.775129 -8.065518 0.000000
-3.474135 -2.293268 0.000000
-2.214172 -2.246486 0.000000
-0.916625 -11.353124 0.000000
-2.503682 -5.770941 0.000000
0.441727 -2.324713 0.000000
2.409740 -2.290125 0.000000
4.644583 0.202663 0.000000
6.093044 -4.560107 0.000000
8.121793 -4.788206 0.000000
6.585248 -3.785027 0.000000
9.122130 -3.910001 0.000000
18.342989 -1.994216 0.000000
9.826568 -2.496505 0.000000
4.712245 6.525413 0.000000
17.446020 -6.649588 0.000000
14.482889 -4.590382 0.000000
18.115829 -2.298567 0.000000
15.546281 -2.880688 0.000000
16.227563 -2.704856 0.000000
17.237764 -2.791443 0.000000
18.248112 -2.912456 0.000000
19.246369 -3.360084 0.000000
18.685939 -3.419626 0.000000
-19.905056 -2.693587 0.000000
-19.472121 -2.911873 0.000000
-19.103343 -2.637842 0.000000
-18.181151 -2.436251 0.000000
-17.221856 -2.562302 0.000000
-16.227534 -2.492481 0.000000
-15.216600 -2.501772 0.000000
-14.133518 -2.382399 0.000000
-13.031718 -2.373460 0.000000
-11.951840 -2.377527 0.000000
-10.844716 -2.341959 0.000000
-9.855508 -2.152077 0.000000
-8.614628 -2.243932 0.000000
-7.483481 -2.252686 0.000000
-5.953825 -2.887168 0.000000
-5.333323 -2.179853 0.000000
-4.013333 -1.993268 0.000000
-3.226559 -2.025322 0.000000
-2.122683 -2.184518 0.000000
-1.130777 -2.125408 0.000000
0.699522 -2.293689 0.000000
0.923973 -2.205763 0.000000
2.234246 -1.996905 0.000000
3.047140 -1.991375 0.000000
4.185785 -2.090653 0.000000
5.313725 -2.172685 0.000000
6.116864 -2.029365 0.000000
7.505036 -2.257625 0.000000
8.558667 -2.398717 0.000000
9.732596 -2.372631 0.000000
10.276800 -3.295398 0.000000
11.920712 -2.381887 0.000000
12.968916 -2.429862 0.000000
14.054629 -2.461203 0.000000
15.098159 -2.489314 0.000000
16.111366 -2.560735 0.000000
17.063261 -2.542515 0.000000
17.982387 -2.646314 0.000000
18.380889 -2.898594 0.000000
18.787136 -2.694843 0.000000
-19.866712 -1.861798 0.000000
-19.408647 -1.976675 0.000000
-19.038608 -1.838015 0.000000
-18.149089 -1.793361 0.000000
-17.187210 -1.760699 0.000000
-16.200408 -1.756809 0.000000
-15.149802 -1.703722 0.000000
-14.095841 -1.700395 0.000000
-13.014243 -1.666882 0.000000
-11.920511 -1.641967 0.000000
-10.817840 -1.616542 0.000000
-9.702093 -1.581100 0.000000
-8.705285 -1.405574 0.000000
-7.448198 -1.486999 0.000000
-6.462370 -1.391396 0.000000
-5.257782 -1.384029 0.000000
-3.765531 -1.253576 0.000000
-4.574419 -2.316128 0.000000
-2.191684 -1.000094 0.000000
-1.767701 0.125040 0.000000
0.853006 0.225132 0.000000
1.472757 -1.028432 0.000000
2.415909 -1.117821 0.000000
3.379051 -0.948350 0.000000
4.079018 -1.350662 0.000000
5.286556 -1.370990 0.000000
6.309932 -1.503697 0.000000
7.412480 -1.611537 0.000000
8.593570 -1.577527 0.000000
9.731683 -1.592978 0.000000
10.763658 -1.646733 0.000000
12.012584 -1.307524 0.000000
12.958265 -1.687564 0.000000
14.023378 -1.706770 0.000000
15.063490 -1.734932 0.000000
16.068834 -1.764448 0.000000
17.027884 -1.796751 0.000000
17.918501 -1.840174 0.000000
18.288578 -1.974017 0.000000
18.755930 -1.851588 0.000000
-22.132193 -2.303793 0.000000
-17.099733 0.324079 0.000000
-18.995932 -0.962078 0.000000
-18.124941 -0.953844 0.000000
-17.169720 -0.946182 0.000000
-16.169883 -0.939705 0.000000
-15.131099 -0.915045 0.000000
-14.072385 -0.896669 0.000000
-12.995360 -0.882031 0.000000
-11.896840 -0.864125 0.000000
-10.800935 -0.819062 0.000000
-9.673197 -0.798764 0.000000
-8.547769 -0.745453 0.000000
-7.373567 -0.707138 0.000000
-5.998190 -0.782043 0.000000
-5.229467 -0.512482 0.000000
-3.487256 -0.243390 0.000000
-3.346139 -0.546469 0.000000
-3.471684 -0.249106 0.000000
-0.120147 -0.545901 0.000000
-0.061489 -0.254988 0.000000
2.193957 -0.180440 0.000000
1.047574 -1.323637 0.000000
1.720729 -1.446266 0.000000
4.082005 -0.515584 0.000000
4.598843 -1.090354 0.000000
6.191407 -0.730594 0.000000
7.414875 -0.750221 0.000000
8.568748 -0.786495 0.000000
9.651058 -0.846586 0.000000
10.757783 -0.868399 0.000000
11.866602 -0.885354 0.000000
12.943710 -0.896861 0.000000
14.003649 -0.911771 0.000000
15.041850 -0.928339 0.000000
16.046837 -0.943762 0.000000
17.002212 -0.958690 0.000000
17.875860 -0.973758 0.000000
19.313244 -2.222616 0.000000
17.542741 -0.006692 0.000000
-25.909466 -4.564020 0.000000
-13.332944 4.377492 0.000000
-18.981442 -0.102391 0.000000
-18.106583 -0.147757 0.000000
-17.166576 -0.112198 0.000000
-16.156484 -0.110725 0.000000
-15.114498 -0.098955 0.000000
-14.059034 -0.081586 0.000000
-12.989574 -0.083483 0.000000
-11.875861 -0.077288 0.000000
-10.737325 -0.043609 0.000000
-9.459297 -0.004424 0.000000
-8.485693 0.103680 0.000000
-7.157831 0.188516 0.000000
-6.161015 0.211897 0.000000
-1.876451 11.214532 0.000000
-2.929768 2.287143 0.000000
-4.057448 -1.648708 0.000000
0.138173 -3.995673 0.000000
-0.763912 0.134698 0.000000
0.182191 0.306903 0.000000
0.272571 0.122601 0.000000
1.989567 0.498960 0.000000
2.189281 0.112306 0.000000
3.813771 0.391987 0.000000
4.986527 0.156569 0.000000
6.012509 0.179690 0.000000
7.362222 0.105771 0.000000
8.640213 0.276045 0.000000
9.621998 -0.041197 0.000000
10.740987 -0.080183 0.000000
11.861204 -0.085156 0.000000
12.931930 -0.082652 0.000000
13.988644 -0.098720 0.000000
15.031328 -0.109470 0.000000
16.039805 -0.111997 0.000000
16.997918 -0.108754 0.000000
17.946798 0.088958 0.000000
9.336080 8.880060 0.000000
-19.851447 0.779131 0.000000
-19.398669 0.893890 0.000000
-19.018352 0.751986 0.000000
-18.141601 0.729741 0.000000
-17.173933 0.702903 0.000000
-16.155615 0.692784 0.000000
-15.092525 0.703291 0.000000
-14.167516 0.699833 0.000000
-13.033196 0.700051 0.000000
-11.855563 0.681623 0.000000
-10.678409 0.850668 0.000000
-9.691943 -0.035412 0.000000
-8.570039 0.470408 0.000000
-7.005328 -1.145310 0.000000
-6.615129 1.041155 0.000000
-1.932916 -1.695763 0.000000
-3.545060 1.053945 0.000000
-4.170390 -1.674901 0.000000
-2.525899 0.853729 0.000000
1.010664 0.280353 0.000000
-1.771174 0.806402 0.000000
-3.752477 -3.967027 0.000000
2.581386 -1.225960 0.000000
2.828070 1.493941 0.000000
3.723994 0.051791 0.000000
5.421873 0.907909 0.000000
5.905160 -1.188647 0.000000
7.491780 0.453134 0.000000
8.374635 -0.178208 0.000000
9.670159 0.958275 0.000000
10.722710 0.678931 0.000000
11.905006 0.698823 0.000000
13.018112 0.700277 0.000000
13.967986 0.702569 0.000000
15.031540 0.693265 0.000000
16.047783 0.704380 0.000000
17.014995 0.726195 0.000000
17.873054 0.729536 0.000000
18.273391 0.893317 0.000000
18.728960 0.776392 0.000000
-19.894108 1.638673 0.000000
-19.497551 1.847313 0.000000
-19.088286 1.579723 0.000000
-18.179852 1.533358 0.000000
-17.207452 1.502826 0.000000
-16.167631 1.468214 0.000000
-15.075709 1.459239 0.000000
-13.962028 0.840854 0.000000
-13.331900 1.398853 0.000000
-11.817036 1.364124 0.000000
-10.678473 1.367325 0.000000
-9.457661 1.402562 0.000000
-8.280190 1.351046 0.000000
-6.152027 0.769272 0.000000
-6.173071 0.951393 0.000000
-2.373942 -1.832085 0.000000
-11.800582 1.951664 0.000000
-3.385040 2.375102 0.000000
-2.507033 1.755485 0.000000
-1.938191 1.495164 0.000000
0.551044 8.073422 0.000000
0.527817 2.106312 0.000000
2.055893 1.799091 0.000000
10.875847 2.169895 0.000000
-1.126200 -2.866476 0.000000
5.014971 1.057090 0.000000
5.042041 0.771891 0.000000
7.150405 1.349160 0.000000
8.409366 1.417659 0.000000
9.582889 1.383130 0.000000
10.681656 1.353007 0.000000
12.205283 1.400171 0.000000
12.842360 0.853915 0.000000
13.965087 1.454924 0.000000
15.060464 1.453147 0.000000
16.078099 1.495474 0.000000
17.007209 1.476164 0.000000
17.965547 1.589089 0.000000
18.372353 1.849210 0.000000
18.770473 1.641338 0.000000
-19.772301 2.293355 0.000000
-20.353468 2.262218 0.000000
-19.338319 1.819577 0.000000
-18.322807 1.703975 0.000000
-17.279162 1.744021 0.000000
-16.359605 2.286884 0.000000
-15.136139 1.792987 0.000000
-13.929854 1.723791 0.000000
-14.102770 1.788960 0.000000
-11.935724 1.521179 0.000000
-4.840630 5.483872 0.000000
-5.380969 1.558610 0.000000
-1.535410 0.416731 0.000000
-1.163352 1.257803 0.000000
-5.624372 -8.457558 0.000000
0.189918 2.314249 0.000000
7.395742 -2.207796 0.000000
2.672491 2.215566 0.000000
-0.600789 0.475429 0.000000
0.845677 -0.477812 0.000000
4.346830 1.417136 0.000000
-10.881424 3.322638 0.000000
9.571457 -9.304434 0.000000
7.680632 7.945391 0.000000
10.853487 1.646270 0.000000
12.993237 1.762176 0.000000
12.843562 1.745127 0.000000
14.295859 1.405248 0.000000
15.636806 1.182497 0.000000
16.220814 1.617401 0.000000
17.199381 1.707978 0.000000
18.214775 1.820240 0.000000
19.229874 2.271876 0.000000
18.649348 2.291951 0.000000
-20.085521 2.405048 0.000000
-19.747026 2.395935 0.000000
-19.143977 2.263191 0.000000
-18.208834 2.198558 0.000000
-17.226774 2.035057 0.000000
-16.073075 1.424867 0.000000
-15.131952 1.811392 0.000000
-14.187628 1.480253 0.000000
-13.039006 1.970818 0.000000
-11.685594 2.459549 0.000000
-101.253307 -6.155975 0.000000
-5.317145 -28.965520 0.000000
-11.758002 -1.976965 0.000000
0.627077 -59.664968 0.000000
-5.324505 1.736396 0.000000
-0.757322 -1.914368 0.000000
7.993835 6.519807 0.000000
-4.586216 8.130033 0.000000
22.085110 -28.184167 0.000000
-23.380684 -27.998535 0.000000
3.795662 8.041678 0.000000
-4.751625 -2.119985 0.000000
-0.875303 -5.821935 0.000000
4.220263 1.734783 0.000000
-142.209677 -33.892946 0.000000
11.349572 -4.217629 0.000000
10.326589 2.111261 0.000000
11.912566 1.972018 0.000000
12.995256 1.445525 0.000000
13.707255 2.208781 0.000000
14.529414 2.539837 0.000000
16.056858 2.184196 0.000000
17.084320 2.199812 0.000000
18.020027 2.264016 0.000000
18.619968 2.391085 0.000000
18.961416 2.404569 0.000000
-9.082520 1.240427 0.000000
-11.102446 0.694827 0.000000
-3.330248 -7.910948 0.000000
-419.798189 -38.611373 0.000000
2.216199 -7.896922 0.000000
9.911402 0.522609 0.000000
7.881107 1.276769 0.000000
-7.758907 -3.087230 0.000000
-4.820171 0.095321 0.000000
-3.919719 -3.015273 0.000000
-2.059280 -1.981992 0.000000
-0.106873 -2.538165 0.000000
-46.906332 -99.903445 0.000000
2.338276 -2.954003 0.000000
3.747396 -0.234350 0.000000
7.056459 -2.606685 0.000000
-9.175921 -11.293825 0.000000
-3.512506 -2.893658 0.000000
-2.319327 -1.991731 0.000000
5.037350 -5.228660 0.000000
0.539875 -1.553648 0.000000
3.816834 -1.781489 0.000000
2.758757 -2.955516 0.000000
1.708204 -3.062894 0.000000
-5.454458 -0.154139 0.000000
-3.428048 -2.430383 0.000000
-1.070364 7.834762 0.000000
-2.199592 -2.231893 0.000000
-2.119169 -2.013392 0.000000
-1.817619 -1.521466 0.000000
1.648633 -0.695158 0.000000
0.479280 -1.999265 0.000000
2.744483 -3.058808 0.000000
6.774800 2.050974 0.000000
-5.832092 -0.116652 0.000000
-3.584641 -1.434200 0.000000
-0.998043 1.337593 0.000000
-2.230611 -0.775940 0.000000
-1.236741 -1.857488 0.000000
-7.588047 0.543798 0.000000
7.454804 -6.578003 0.000000
-3.658481 3.321486 0.000000
2.865728 -1.056794 0.000000
4.522721 0.108928 0.000000
-3.630450 -1.371688 0.000000
-3.865861 -1.465135 0.000000
-2.639172 0.288990 0.000000
-2.243474 -1.841160 0.000000
-0.618575 -1.238450 0.000000
0.262494 -1.760386 0.000000
1.298595 -1.783794 0.000000
1.171543 -2.006949 0.000000
2.946160 -1.341877 0.000000
2.676184 -1.140876 0.000000
</DataArray>
</Points>
<PointData Vectors="vector">
<DataArray type="Float32" Name="Velocity" NumberOfComponents="3" format="ascii">
3.768439 3.039389 0.000000
8.031931 7.054161 0.000000
1.953789 3.508362 0.000000
1.600359 3.684375 0.000000
1.303820 4.141365 0.000000
5.807947 0.990553 0.000000
26.687802 5.739672 0.000000
25.060736 -9.701220 0.000000
57.422656 -1.001443 0.000000
54.169286 7.632761 0.000000
32.502407 22.227231 0.000000
62.975474 -5.485949 0.000000
45.108952 21.785211 0.000000
18.526387 -10.030071 0.000000
38.555123 24.578106 0.000000
23.205840 -15.228644 0.000000
-65.500567 44.390569 0.000000
0.219361 4.808526 0.000000
-0.505836 5.056378 0.000000
-2.432674 67.730861 0.000000
17.875906 27.268360 0.000000
6.909840 3.907862 0.000000
-0.262277 5.072664 0.000000
-15.388118 -16.783431 0.000000
-14.386574 18.786840 0.000000
-22.121643 19.496302 0.000000
4.149821 11.901839 0.000000
-11.277431 12.119421 0.000000
-68.026065 -2.110280 0.000000
-1.031510 3.722103 0.000000
43.405862 -64.705815 0.000000
-35.576619 35.838808 0.000000
-14.109498 5.128483 0.000000
-28.543540 -0.591493 0.000000
-3.842530 4.784476 0.000000
-1.407183 3.673840 0.000000
-1.558829 3.490656 0.000000
-1.740964 3.309470 0.000000
-3.857083 0.480087 0.000000
-6.368238 6.327971 0.000000
2.963897 7.564389 0.000000
1.653981 -4.409281 0.000000
-0.700248 7.530942 0.000000
1.374201 5.389613 0.000000
1.373280 5.795753 0.000000
-4.368875 8.280918 0.000000
-25.198611 4.175754 0.000000
-22.670351 18.912490 0.000000
-55.726329 6.096043 0.000000
-56.363330 -5.914639 0.000000
-28.962804 -16.224175 0.000000
-57.723910 23.741943 0.000000
-45.222006 -10.980651 0.000000
-16.988048 20.481463 0.000000
-37.550112 -15.146668 0.000000
-22.480992 25.326609 0.000000
66.917334 -34.893597 0.000000
0.410460 7.121663 0.000000
1.813163 10.528023 0.000000
1.492224 -58.734631 0.000000
-18.163995 -17.560818 0.000000
-4.841000 8.233151 0.000000
1.539370 6.905841 0.000000
8.708806 25.276697 0.000000
12.361007 -8.652387 0.000000
18.809007 -9.689686 0.000000
0.125802 -2.319610 0.000000
10.109317 -3.093222 0.000000
66.837603 10.818907 0.000000
-0.855179 7.071072 0.000000
-45.491133 72.193341 0.000000
37.059783 -21.498205 0.000000
9.225484 -7.124800 0.000000
26.925632 7.459548 0.000000
2.219250 5.238936 0.000000
-1.341025 6.454141 0.000000
-1.396809 5.980085 0.000000
-0.667694 5.783652 0.000000
-1.516589 2.543187 0.000000
-5.524637 6.015451 0.000000
3.671076 0.978674 0.000000
8.741978 -0.106797 0.000000
1.687867 1.059986 0.000000
1.806160 3.790083 0.000000
1.401057 0.778561 0.000000
0.795732 1.709470 0.000000
0.426450 1.434713 0.000000
0.666531 2.402308 0.000000
0.866379 2.278654 0.000000
0.738674 2.014376 0.000000
0.795372 2.269027 0.000000
-0.161415 3.851432 0.000000
1.118434 2.755583 0.000000
1.458029 2.077786 0.000000
5.912875 -4.556469 0.000000
1.018214 2.313750 0.000000
2.154764 4.209730 0.000000
4.268191 2.213183 0.000000
-2.640426 3.885262 0.000000
0.282117 3.210626 0.000000
7.231589 0.774577 0.000000
-0.776275 2.730538 0.000000
0.252604 3.107692 0.000000
-1.498063 3.633445 0.000000
-1.061945 3.434318 0.000000
-0.733641 2.746362 0.000000
-4.980904 6.258618 0.000000
-1.424134 2.551560 0.000000
-0.853279 2.086517 0.000000
-0.351173 1.167048 0.000000
-5.630387 -5.876669 0.000000
-0.679599 2.285375 0.000000
-1.066593 1.946300 0.000000
-0.817822 1.659085 0.000000
-0.964451 1.704804 0.000000
-0.958169 0.695455 0.000000
-1.719397 2.298264 0.000000
-1.845169 1.176929 0.000000
-6.741681 0.247043 0.000000
-3.681777 1.163133 0.000000
3.714088 0.414201 0.000000
6.220180 0.047601 0.000000
2.063003 0.432256 0.000000
1.783517 0.694910 0.000000
1.491220 0.868475 0.000000
0.812918 0.588568 0.000000
0.967165 1.165918 0.000000
0.800117 0.926310 0.000000
0.840181 1.147070 0.000000
0.951387 1.197283 0.000000
0.835622 1.325518 0.000000
1.021138 1.429674 0.000000
-0.513662 3.411761 0.000000
1.322422 1.695552 0.000000
0.388438 1.849773 0.000000
1.409370 1.499072 0.000000
7.689594 1.108063 0.000000
-8.513326 -5.866259 0.000000
-1.706231 2.452946 0.000000
1.421544 3.189461 0.000000
-1.829331 4.096330 0.000000
4.902800 3.746072 0.000000
2.585506 3.274947 0.000000
-0.605666 2.777746 0.000000
-1.974598 2.034365 0.000000
-0.791708 1.991199 0.000000
-1.275683 1.039941 0.000000
-1.339940 1.020513 0.000000
-0.768835 1.397823 0.000000
-0.502756 1.471290 0.000000
-1.317382 1.178854 0.000000
2.372075 12.130058 0.000000
-1.019449 1.121103 0.000000
-1.014709 1.068804 0.000000
-1.132433 0.904332 0.000000
-1.378492 0.750053 0.000000
-1.714744 0.601027 0.000000
-2.024139 0.302131 0.000000
-6.254656 -0.741884 0.000000
-3.422803 0.629985 0.000000
-16.200387 -10.696764 0.000000
25.301090 11.659099 0.000000
2.524198 0.318405 0.000000
1.902273 0.346096 0.000000
1.330934 0.143446 0.000000
1.066538 0.071873 0.000000
1.012493 0.368650 0.000000
0.925842 0.463848 0.000000
0.878225 0.488133 0.000000
0.933264 0.497272 0.000000
0.543325 0.922734 0.000000
0.669322 0.413826 0.000000
1.054400 0.696313 0.000000
1.869102 -0.058740 0.000000
2.314166 0.205602 0.000000
1.032077 1.177438 0.000000
6.420423 7.272186 0.000000
0.781207 0.494701 0.000000
-9.398509 -0.260332 0.000000
3.782530 1.256080 0.000000
-2.232042 1.158114 0.000000
2.787441 2.483780 0.000000
-6.333346 -5.467263 0.000000
-1.413421 -34.121240 0.000000
-1.176487 1.017024 0.000000
-3.602736 -1.024543 0.000000
-2.038203 0.338872 0.000000
-1.068193 0.633072 0.000000
-0.732586 0.761485 0.000000
-1.064760 0.434808 0.000000
-1.071135 0.442372 0.000000
-0.927197 0.370087 0.000000
-1.012970 0.460009 0.000000
-1.092460 0.429490 0.000000
-1.230527 0.358465 0.000000
-1.460038 0.294034 0.000000
-1.808473 0.248013 0.000000
-2.434146 0.217585 0.000000
1.380760 -9.828491 0.000000
-13.674737 2.942631 0.000000
-46.362286 -36.393254 0.000000
55.332742 35.550330 0.000000
2.669989 -0.203647 0.000000
2.278736 -1.285607 0.000000
1.345097 -0.189287 0.000000
1.218390 -0.239028 0.000000
1.109350 -0.153203 0.000000
0.960771 -0.045686 0.000000
0.837537 -0.139386 0.000000
0.961327 -0.167771 0.000000
1.170619 -0.113570 0.000000
3.852597 -2.844301 0.000000
1.609701 0.742564 0.000000
2.271896 -0.039973 0.000000
1.657592 0.223472 0.000000
19.793266 61.869679 0.000000
7.242321 19.344636 0.000000
-2.742409 -20.906168 0.000000
33.084355 -71.859263 0.000000
-0.730958 -1.380071 0.000000
4.021609 -4.171111 0.000000
-3.793774 -1.275187 0.000000
-3.889595 1.138735 0.000000
-0.417992 -3.902398 0.000000
-3.635864 -0.360520 0.000000
-1.943125 0.067682 0.000000
-2.371439 -0.097044 0.000000
-0.921507 0.404369 0.000000
1.531045 4.790312 0.000000
-1.027134 -0.027660 0.000000
-1.059932 -0.205157 0.000000
-0.884645 -0.167521 0.000000
-1.013375 -0.055324 0.000000
-1.155288 -0.135879 0.000000
-1.272229 -0.189495 0.000000
-1.485753 -0.203971 0.000000
-1.773890 -0.189955 0.000000
-0.605677 6.668899 0.000000
-78.433668 72.160115 0.000000
3.817388 -0.449026 0.000000
6.257442 -0.090563 0.000000
2.202212 -0.579679 0.000000
1.759650 -0.684765 0.000000
1.422202 -0.859000 0.000000
1.250996 -0.787668 0.000000
1.253703 -0.701533 0.000000
-0.986635 -3.671910 0.000000
0.535763 -0.840820 0.000000
1.034812 -0.885807 0.000000
0.611487 1.528875 0.000000
-1.835500 -1.899861 0.000000
-0.447488 -3.669746 0.000000
1.051935 -6.261707 0.000000
-1.536772 -1.957628 0.000000
9.408559 -6.337342 0.000000
1.450482 -1.952679 0.000000
-2.400312 -7.766613 0.000000
-1.569471 -3.156427 0.000000
0.257875 -2.895615 0.000000
-5.298998 -3.110846 0.000000
-18.277284 -20.395620 0.000000
0.562633 -4.587131 0.000000
0.518507 0.406208 0.000000
1.097744 -3.595625 0.000000
0.171060 -4.069147 0.000000
-0.957839 -6.701572 0.000000
0.799560 -3.572312 0.000000
-1.818235 -7.448282 0.000000
1.297359 2.820164 0.000000
-1.107530 -0.933505 0.000000
-0.571960 -0.854364 0.000000
0.808909 -3.835365 0.000000
-1.272218 -0.692904 0.000000
-1.255575 -0.752105 0.000000
-1.491228 -0.701523 0.000000
-1.749315 -0.675287 0.000000
-2.392776 -0.820129 0.000000
-6.257280 -0.108375 0.000000
-3.810122 -0.476211 0.000000
3.695534 -0.934756 0.000000
6.643657 -0.128089 0.000000
1.793069 -0.908710 0.000000
1.441633 -0.824319 0.000000
1.196851 -0.762703 0.000000
1.958138 -0.721019 0.000000
1.252410 -0.984165 0.000000
2.130489 -0.496363 0.000000
-0.469249 -1.982430 0.000000
0.887528 -1.250271 0.000000
0.928078 -2.437881 0.000000
1.563963 -2.334679 0.000000
1.029494 -2.668612 0.000000
4.979557 -1.330671 0.000000
1.292711 -2.977716 0.000000
9.047176 -12.026275 0.000000
-5.301430 -8.349154 0.000000
1.085643 -0.528784 0.000000
-0.371783 -3.245059 0.000000
-1.712642 -3.281299 0.000000
0.354727 33.516466 0.000000
-2.548868 -1.683120 0.000000
-1.859397 -5.255122 0.000000
10.423383 -2.449653 0.000000
-14.506903 -13.002653 0.000000
-1.605841 -2.145103 0.000000
-4.697651 -1.784183 0.000000
-0.710892 -2.302838 0.000000
-1.021961 -2.168586 0.000000
-0.758792 -2.269066 0.000000
-1.127570 -1.653356 0.000000
0.455018 -1.986337 0.000000
-2.072425 -0.307312 0.000000
-0.866355 -1.279553 0.000000
-0.934727 -1.528855 0.000000
-1.116260 -0.807334 0.000000
-2.003982 -1.484245 0.000000
-1.766410 -0.823746 0.000000
-6.653020 -0.101277 0.000000
-3.699391 -0.903746 0.000000
6.147262 -4.935978 0.000000
1.499300 -2.530446 0.000000
0.798863 -5.576830 0.000000
1.566663 -5.961167 0.000000
1.623620 -4.881638 0.000000
-4.726639 12.483589 0.000000
3.129503 -5.667801 0.000000
2.314479 -4.443060 0.000000
0.105832 -0.689219 0.000000
0.512454 -6.717524 0.000000
24.848343 20.685097 0.000000
0.664569 -2.794376 0.000000
9.141814 -10.247472 0.000000
6.365786 -0.082763 0.000000
-9.297492 -39.435321 0.000000
2.558888 -3.641468 0.000000
19.511787 -15.171164 0.000000
2.795492 -1.571205 0.000000
-9.014170 -0.553263 0.000000
-1.209472 -16.844507 0.000000
-0.178641 -3.719707 0.000000
-144.648161 47.120821 0.000000
6.411553 -75.009984 0.000000
-12.632765 33.639016 0.000000
1.120849 -6.750891 0.000000
0.448843 -0.577488 0.000000
-2.229492 -4.271363 0.000000
0.340313 -7.470192 0.000000
2.598400 -9.096683 0.000000
-1.236240 -6.426900 0.000000
-1.490560 -5.780964 0.000000
-0.791220 -5.562681 0.000000
-1.521172 -2.439242 0.000000
-6.102608 -5.049165 0.000000
6.335175 -6.264790 0.000000
3.415065 -1.588280 0.000000
1.737910 -3.266262 0.000000
1.616285 -3.431348 0.000000
1.160801 -4.847255 0.000000
6.169119 -22.293187 0.000000
-0.870256 -4.348991 0.000000
-0.356975 -6.445404 0.000000
0.547883 -5.341279 0.000000
-2.751435 4.279152 0.000000
-562.512049 -53.835060 0.000000
27.900701 -201.426447 0.000000
-22.079745 -30.148782 0.000000
60.730445 -479.374863 0.000000
2.493288 -7.213954 0.000000
6.209362 -8.610177 0.000000
26.830612 19.766092 0.000000
-3.067051 2.753764 0.000000
32.184881 -37.757655 0.000000
-32.439516 -37.484595 0.000000
3.618208 2.549463 0.000000
-7.058432 -6.087390 0.000000
-11.161827 -40.111648 0.000000
-2.362691 -6.755541 0.000000
-1145.384919 -279.997414 0.000000
10.278069 -41.480885 0.000000
-3.856856 -1.150444 0.000000
-0.565687 -5.331006 0.000000
-0.462928 -6.920822 0.000000
-3.098401 -2.171579 0.000000
-5.054311 0.058152 0.000000
-1.504775 -3.112798 0.000000
-1.617668 -3.390459 0.000000
-1.735256 -3.244142 0.000000
-3.480009 -1.486975 0.000000
-6.315802 -6.270911 0.000000
-3.005510 1.400157 0.000000
-5.875128 -2.746096 0.000000
1.544225 -12.438904 0.000000
-483.017277 -49.834127 0.000000
-1.516465 -12.379661 0.000000
4.330621 -4.403443 0.000000
2.446740 1.491422 0.000000
-5.113098 -7.789804 0.000000
2.777808 -8.973795 0.000000
-0.233621 -9.033213 0.000000
-2.819848 -3.644945 0.000000
-0.143477 -6.317494 0.000000
-74.107917 -159.328766 0.000000
-2.256005 -6.403539 0.000000
-2.622210 -10.146580 0.000000
5.543183 -6.536338 0.000000
-22.793549 -67.063937 0.000000
3.331367 -6.546365 0.000000
8.090541 -2.710552 0.000000
7.824927 -14.209434 0.000000
6.745461 -12.235529 0.000000
7.286622 -4.460449 0.000000
2.004944 -9.137908 0.000000
-5.245871 -10.621961 0.000000
0.023487 -8.362109 0.000000
-4.386561 -11.271382 0.000000
7.544839 18.857869 0.000000
-6.625250 -13.135696 0.000000
1.004331 -17.092381 0.000000
-6.880929 -9.027051 0.000000
-6.633459 19.629026 0.000000
-7.126310 -10.103074 0.000000
-3.647901 -15.003507 0.000000
8.568254 0.063614 0.000000
-3.926533 -6.611158 0.000000
-0.912141 -11.285352 0.000000
4.730115 -7.574503 0.000000
0.727340 -9.505252 0.000000
-0.960684 -14.797480 0.000000
-19.813013 -12.045721 0.000000
36.923929 -40.767370 0.000000
-30.357615 15.161887 0.000000
2.297971 -11.822431 0.000000
1.996076 -8.225201 0.000000
6.440376 -15.190010 0.000000
-3.543672 -18.137330 0.000000
1.965312 -9.320253 0.000000
0.700973 -15.702103 0.000000
2.609769 -14.499180 0.000000
1.500073 -14.083948 0.000000
1.666418 -15.600820 0.000000
-1.133391 -16.993108 0.000000
-0.473361 -15.772310 0.000000
-4.425585 -11.383845 0.000000
</DataArray>
<DataArray type="Float32" Name="Masse" format="ascii">
1.000000
1.000000
1.000000
1.000000
1.000000
1.000000
1.000000
1.000000
1.000000
1.000000
1.000000
1.000000
1.000000
1.000000
1.000000
1.000000
1.000000
1.000000
1.000000
1.000000
1.000000
1.000000
1.000000
1.000000
1.000000
1.000000
1.000000
1.000000
1.000000
1.000000
1.000000
1.000000
1.000000
1.000000
1.000000
1.000000
1.000000
1.000000
1.000000
1.000000
1.000000
1.000000
1.000000
1.000000
1.000000
1.000000
1.000000
1.000000
1.000000
1.000000
1.000000
1.000000
1.000000
1.000000
1.000000
1.000000
1.000000
1.000000
1.000000
1.000000
1.000000
1.000000
1.000000
1.000000
1.000000
1.000000
1.000000
1.000000
1.000000
1.000000
1.000000
1.000000
1.000000
1.000000
1.000000
1.000000
1.000000
1.000000
1.000000
1.000000
1.000000
1.000000
1.000000
1.000000
1.000000
1.000000
1.000000
1.000000
1.000000
1.000000
1.000000
1.000000
1.000000
1.000000
1.000000
1.000000
1.000000
1.000000
1.000000
1.000000
1.000000
1.000000
1.000000
1.000000
1.000000
1.000000
1.000000
1.000000
1.000000
1.000000
1.000000
1.000000
1.000000
1.000000
1.000000
1.000000
1.000000
1.000000
1.000000
1.000000
1.000000
1.000000
1.000000
1.000000
1.000000
1.000000
1.000000
1.000000
1.000000
1.000000
1.000000
1.000000
1.000000
1.000000
1.000000
1.000000
1.000000
1.000000
1.000000
1.000000
1.000000
1.000000
1.000000
1.000000
1.000000
1.000000
1.000000
1.000000
1.000000
1.000000
1.000000
1.000000
1.000000
1.000000
1.000000
1.000000
1.000000
1.000000
1.000000
1.000000
1.000000
1.000000
1.000000
1.000000
1.000000
1.000000
1.000000
1.000000
1.000000
1.000000
1.000000
1.000000
1.000000
1.000000
1.000000
1.000000
1.000000
1.000000
1.000000
1.000000
1.000000
1.000000
1.000000
1.000000
1.000000
1.000000
1.000000
1.000000
1.000000
1.000000
1.000000
1.000000
1.000000
1.000000
1.000000
1.000000
1.000000
1.000000
1.000000
1.000000
1.000000
1.000000
1.000000
1.000000
1.000000
1.000000
1.000000
1.000000
1.000000
1.000000
1.000000
1.000000
1.000000
1.000000
1.000000
1.000000
1.000000
1.000000
1.000000
1.000000
1.000000
1.000000
1.000000
1.000000
1.000000
1.000000
1.000000
1.000000
1.000000
1.000000
1.000000
1.000000
1.000000
1.000000
1.000000
1.000000
1.000000
1.000000
1.000000
1.000000
1.000000
1.000000
1.000000
1.000000
1.000000
1.000000
1.000000
1.000000
1.000000
1.000000
1.000000
1.000000
1.000000
1.000000
1.000000
1.000000
1.000000
1.000000
1.000000
1.000000
1.000000
1.000000
1.000000
1.000000
1.000000
1.000000
1.000000
1.000000
1.000000
1.000000
1.000000
1.000000
1.000000
1.000000
1.000000
1.000000
1.000000
1.000000
1.000000
1.000000
1.000000
1.000000
1.000000
1.000000
1.000000
1.000000
1.000000
1.000000
1.000000
1.000000
1.000000
1.000000
1.000000
1.000000
1.000000
1.000000
1.000000
1.000000
1.000000
1.000000
1.000000
1.000000
1.000000
1.000000
1.000000
1.000000
1.000000
1.000000
1.000000
1.000000
1.000000
1.000000
1.000000
1.000000
1.000000
1.000000
1.000000
1.000000
1.000000
1.000000
1.000000
1.000000
1.000000
1.000000
1.000000
1.000000
1.000000
1.000000
1.000000
1.000000
1.000000
1.000000
1.000000
1.000000
1.000000
1.000000
1.000000
1.000000
1.000000
1.000000
1.000000
1.000000
1.000000
1.000000
1.000000
1.000000
1.000000
1.000000
1.000000
1.000000
1.000000
1.000000
1.000000
1.000000
1.000000
1.000000
1.000000
1.000000
1.000000
1.000000
1.000000
1.000000
1.000000
1.000000
1.000000
1.000000
1.000000
1.000000
1.000000
1.000000
1.000000
1.000000
1.000000
1.000000
1.000000
1.000000
1.000000
1.000000
1.000000
1.000000
1.000000
1.000000
1.000000
1.000000
1.000000
1.000000
1.000000
1.000000
1.000000
1.000000
1.000000
1.000000
1.000000
1.000000
1.000000
1.000000
1.000000
1.000000
1.000000
1.000000
1.000000
1.000000
1.000000
1.000000
1.000000
1.000000
1.000000
1.000000
1.000000
1.000000
1.000000
1.000000
1.000000
1.000000
1.000000
1.000000
1.000000
1.000000
1.000000
1.000000
1.000000
1.000000
1.000000
1.000000
1.000000
1.000000
1.000000
1.000000
1.000000
1.000000
1.000000
1.000000
1.000000
1.000000
1.000000
1.000000
1.000000
1.000000
1.000000
1.000000
1.000000
1.000000
1.000000
</DataArray>
</PointData>
<Cells>
<DataArray type="Int32" Name="connectivity" format="ascii">
</DataArray>
<DataArray type="Int32" Name="offsets" format="ascii">
</DataArray>
<DataArray type="UInt8" Name="types" format="ascii">
</DataArray>
</Cells>
</Piece>